
                    DL_POLY Classic 1.10

                              Running on    1 nodes


 ************************************************************************************************************************
 ************************************************************************************************************************
 ************************************************************************************************************************
 ***************     # minimisation                                                                       ***************
 ************************************************************************************************************************
 ************************************************************************************************************************
 ************************************************************************************************************************


 SIMULATION CONTROL PARAMETERS


 structure optimisation requested
 convergence to minimum energy selected
 tolerance for structure optimisation      1.0000E+00         

 selected number of timesteps            1

 simulation timestep              0.0000E+00

 real space cut off               1.2500E+01

 border width of Verlet shell     1.0000E+00

 Ewald sum  precision             1.0000E-06

 Electrostatics : Ewald sum  

 Ewald convergence parameter      2.5396E-01
 Ewald kmax1 kmax2 kmax3         7    7    9

 user allocated job time (d)    ********

 job closure time        (s)    2000.000

 statistics file interval                1


SYSTEM SPECIFICATION

 energy units=kcal/ mol 


 number of molecular types               2

 molecular species type                  1


 name of species:             &guest CO2: Carbon Dioxide for Adsorptio

 number of molecules                     1

 number of atoms/sites                   3


 atomic characteristics:

                      site     name          mass        charge    repeat    freeze

                         1     Cx          12.01070     0.65120         1         0
                         2     Ox          15.99940    -0.32560         1         0
                         3     Ox          15.99940    -0.32560         1         0

 number of rigid units                   1

 rigid body details:

                           unit   indices

                              1         1         2         3

 molecular species type                  2


 name of species:             Framework                               

 number of molecules                     8

 number of atoms/sites                 208


 atomic characteristics:

                      site     name          mass        charge    repeat    freeze

                         4     Zn          65.38000     0.86607         1         1
                         5     Zn          65.38000     0.85547         1         1
                         6     Zn          65.38000     0.86659         1         1
                         7     Zn          65.38000     0.86774         1         1
                         8     Zn          65.38000     0.85540         1         1
                         9     Zn          65.38000     0.86598         1         1
                        10     Zn          65.38000     0.86792         1         1
                        11     Zn          65.38000     0.86667         1         1
                        12     Zn          65.38000     0.97061         1         1
                        13     Zn          65.38000     0.96650         1         1
                        14     Zn          65.38000     0.97028         1         1
                        15     Zn          65.38000     0.97143         1         1
                        16     Zn          65.38000     0.96601         1         1
                        17     Zn          65.38000     0.97116         1         1
                        18     Zn          65.38000     0.97198         1         1
                        19     Zn          65.38000     0.96983         1         1
                        20     C           12.01070     0.63793         1         1
                        21     C           12.01070     0.64300         1         1
                        22     C           12.01070     0.64066         1         1
                        23     C           12.01070     0.64294         1         1
                        24     C           12.01070     0.64288         1         1
                        25     C           12.01070     0.63832         1         1
                        26     C           12.01070     0.64294         1         1
                        27     C           12.01070     0.64046         1         1
                        28     C           12.01070     0.15452         1         1
                        29     C           12.01070     0.14779         1         1
                        30     C           12.01070     0.15430         1         1
                        31     C           12.01070     0.15114         1         1
                        32     C           12.01070     0.14720         1         1
                        33     C           12.01070     0.15449         1         1
                        34     C           12.01070     0.15181         1         1
                        35     C           12.01070     0.15421         1         1
                        36     O           15.99940    -0.50549         1         1
                        37     O           15.99940    -0.51024         1         1
                        38     O           15.99940    -0.50659         1         1
                        39     O           15.99940    -0.50859         1         1
                        40     O           15.99940    -0.50990         1         1
                        41     O           15.99940    -0.50546         1         1
                        42     O           15.99940    -0.50885         1         1
                        43     O           15.99940    -0.50666         1         1
                        44     O           15.99940    -0.39728         1         1
                        45     O           15.99940    -0.38988         1         1
                        46     O           15.99940    -0.39881         1         1
                        47     O           15.99940    -0.39590         1         1
                        48     O           15.99940    -0.38976         1         1
                        49     O           15.99940    -0.39736         1         1
                        50     O           15.99940    -0.39618         1         1
                        51     O           15.99940    -0.39867         1         1
                        52     O           15.99940    -0.33147         1         1
                        53     O           15.99940    -0.32585         1         1
                        54     O           15.99940    -0.33016         1         1
                        55     O           15.99940    -0.32903         1         1
                        56     O           15.99940    -0.32538         1         1
                        57     O           15.99940    -0.33170         1         1
                        58     O           15.99940    -0.32944         1         1
                        59     O           15.99940    -0.32995         1         1
                        60     O           15.99940    -0.69754         1         1
                        61     O           15.99940    -0.69823         1         1
                        62     O           15.99940    -0.70051         1         1
                        63     O           15.99940    -0.70139         1         1
                        64     O           15.99940    -0.69802         1         1
                        65     O           15.99940    -0.69807         1         1
                        66     O           15.99940    -0.70161         1         1
                        67     O           15.99940    -0.70016         1         1
                        68     C           12.01070     0.73124         1         1
                        69     C           12.01070     0.69758         1         1
                        70     C           12.01070     0.72656         1         1
                        71     C           12.01070     0.72785         1         1
                        72     C           12.01070     0.69816         1         1
                        73     C           12.01070     0.73161         1         1
                        74     C           12.01070     0.72832         1         1
                        75     C           12.01070     0.72627         1         1
                        76     C           12.01070     0.26988         1         1
                        77     C           12.01070     0.21246         1         1
                        78     C           12.01070     0.26011         1         1
                        79     C           12.01070     0.26146         1         1
                        80     C           12.01070     0.21306         1         1
                        81     C           12.01070     0.26954         1         1
                        82     C           12.01070     0.26134         1         1
                        83     C           12.01070     0.26045         1         1
                        84     H            1.00794     0.06330         1         1
                        85     H            1.00794     0.07531         1         1
                        86     H            1.00794     0.06465         1         1
                        87     H            1.00794     0.06505         1         1
                        88     H            1.00794     0.07518         1         1
                        89     H            1.00794     0.06346         1         1
                        90     H            1.00794     0.06504         1         1
                        91     H            1.00794     0.06448         1         1
                        92     C           12.01070     0.62690         1         1
                        93     C           12.01070     0.61918         1         1
                        94     C           12.01070     0.62944         1         1
                        95     C           12.01070     0.62379         1         1
                        96     C           12.01070     0.61902         1         1
                        97     C           12.01070     0.62594         1         1
                        98     C           12.01070     0.62398         1         1
                        99     C           12.01070     0.63050         1         1
                       100     C           12.01070     0.11084         1         1
                       101     C           12.01070     0.12150         1         1
                       102     C           12.01070     0.11904         1         1
                       103     C           12.01070     0.11015         1         1
                       104     C           12.01070     0.12387         1         1
                       105     C           12.01070     0.11108         1         1
                       106     C           12.01070     0.10758         1         1
                       107     C           12.01070     0.11875         1         1
                       108     H            1.00794     0.11584         1         1
                       109     H            1.00794     0.11157         1         1
                       110     H            1.00794     0.11437         1         1
                       111     H            1.00794     0.12128         1         1
                       112     H            1.00794     0.11012         1         1
                       113     H            1.00794     0.11585         1         1
                       114     H            1.00794     0.12285         1         1
                       115     H            1.00794     0.11436         1         1
                       116     N           14.00670    -0.51210         1         1
                       117     N           14.00670    -0.46202         1         1
                       118     N           14.00670    -0.50620         1         1
                       119     N           14.00670    -0.50821         1         1
                       120     N           14.00670    -0.46234         1         1
                       121     N           14.00670    -0.51180         1         1
                       122     N           14.00670    -0.50861         1         1
                       123     N           14.00670    -0.50651         1         1
                       124     N           14.00670    -0.45560         1         1
                       125     N           14.00670    -0.41980         1         1
                       126     N           14.00670    -0.44756         1         1
                       127     N           14.00670    -0.44970         1         1
                       128     N           14.00670    -0.42028         1         1
                       129     N           14.00670    -0.45562         1         1
                       130     N           14.00670    -0.44920         1         1
                       131     N           14.00670    -0.44755         1         1
                       132     N           14.00670    -0.28680         1         1
                       133     N           14.00670    -0.28851         1         1
                       134     N           14.00670    -0.28592         1         1
                       135     N           14.00670    -0.28539         1         1
                       136     N           14.00670    -0.28933         1         1
                       137     N           14.00670    -0.28728         1         1
                       138     N           14.00670    -0.28488         1         1
                       139     N           14.00670    -0.28552         1         1
                       140     N           14.00670    -0.98208         1         1
                       141     N           14.00670    -0.97033         1         1
                       142     N           14.00670    -0.98346         1         1
                       143     N           14.00670    -0.97903         1         1
                       144     N           14.00670    -0.96629         1         1
                       145     N           14.00670    -0.98244         1         1
                       146     N           14.00670    -0.98395         1         1
                       147     N           14.00670    -0.98314         1         1
                       148     H            1.00794     0.45969         1         1
                       149     H            1.00794     0.45773         1         1
                       150     H            1.00794     0.46103         1         1
                       151     H            1.00794     0.45834         1         1
                       152     H            1.00794     0.45624         1         1
                       153     H            1.00794     0.45987         1         1
                       154     H            1.00794     0.46003         1         1
                       155     H            1.00794     0.46090         1         1
                       156     H            1.00794     0.37161         1         1
                       157     H            1.00794     0.37029         1         1
                       158     H            1.00794     0.37554         1         1
                       159     H            1.00794     0.37507         1         1
                       160     H            1.00794     0.36829         1         1
                       161     H            1.00794     0.37164         1         1
                       162     H            1.00794     0.37741         1         1
                       163     H            1.00794     0.37547         1         1
                       164     N           14.00670    -0.34565         1         1
                       165     N           14.00670    -0.36126         1         1
                       166     N           14.00670    -0.35040         1         1
                       167     N           14.00670    -0.35203         1         1
                       168     N           14.00670    -0.36196         1         1
                       169     N           14.00670    -0.34608         1         1
                       170     N           14.00670    -0.35129         1         1
                       171     N           14.00670    -0.34993         1         1
                       172     N           14.00670    -0.25590         1         1
                       173     N           14.00670    -0.24693         1         1
                       174     N           14.00670    -0.26054         1         1
                       175     N           14.00670    -0.25564         1         1
                       176     N           14.00670    -0.24654         1         1
                       177     N           14.00670    -0.25551         1         1
                       178     N           14.00670    -0.25608         1         1
                       179     N           14.00670    -0.26093         1         1
                       180     N           14.00670    -0.47990         1         1
                       181     N           14.00670    -0.47819         1         1
                       182     N           14.00670    -0.48310         1         1
                       183     N           14.00670    -0.47538         1         1
                       184     N           14.00670    -0.47947         1         1
                       185     N           14.00670    -0.47921         1         1
                       186     N           14.00670    -0.47397         1         1
                       187     N           14.00670    -0.48378         1         1
                       188     N           14.00670    -0.81119         1         1
                       189     N           14.00670    -0.80406         1         1
                       190     N           14.00670    -0.81052         1         1
                       191     N           14.00670    -0.80758         1         1
                       192     N           14.00670    -0.80381         1         1
                       193     N           14.00670    -0.81134         1         1
                       194     N           14.00670    -0.80782         1         1
                       195     N           14.00670    -0.81069         1         1
                       196     H            1.00794     0.31644         1         1
                       197     H            1.00794     0.31718         1         1
                       198     H            1.00794     0.31501         1         1
                       199     H            1.00794     0.31739         1         1
                       200     H            1.00794     0.31729         1         1
                       201     H            1.00794     0.31633         1         1
                       202     H            1.00794     0.31724         1         1
                       203     H            1.00794     0.31525         1         1
                       204     H            1.00794     0.36487         1         1
                       205     H            1.00794     0.35788         1         1
                       206     H            1.00794     0.36309         1         1
                       207     H            1.00794     0.36044         1         1
                       208     H            1.00794     0.35777         1         1
                       209     H            1.00794     0.36552         1         1
                       210     H            1.00794     0.36055         1         1
                       211     H            1.00794     0.36251         1         1


 number of specified pair potentials        28


                atom 1  atom 2      key                              parameters


                Zn      Zn        lj       1.24000E-01  2.46160E+00
                Zn      C         lj       1.14105E-01  2.94625E+00
                Zn      O         lj       8.62550E-02  2.78985E+00
                Zn      H         lj       7.38650E-02  2.51635E+00
                Zn      N         lj       9.24990E-02  2.86115E+00
                Zn      Cx        lj       8.58810E-02  2.60330E+00
                Zn      Ox        lj       1.45288E-01  2.73930E+00
                C       C         lj       1.05000E-01  3.43090E+00
                C       O         lj       7.93730E-02  3.27450E+00
                C       H         lj       6.79710E-02  3.00100E+00
                C       N         lj       8.51180E-02  3.34580E+00
                C       Cx        lj       7.90280E-02  3.08795E+00
                C       Ox        lj       1.33694E-01  3.22395E+00
                O       O         lj       6.00000E-02  3.11810E+00
                O       H         lj       5.13810E-02  2.84460E+00
                O       N         lj       6.43430E-02  3.18940E+00
                O       Cx        lj       5.97390E-02  2.93155E+00
                O       Ox        lj       1.01063E-01  3.06755E+00
                H       H         lj       4.40000E-02  2.57110E+00
                H       N         lj       5.51000E-02  2.91590E+00
                H       Cx        lj       5.11580E-02  2.65805E+00
                H       Ox        lj       8.65450E-02  2.79405E+00
                N       N         lj       6.90000E-02  3.26070E+00
                N       Cx        lj       6.40630E-02  3.00285E+00
                N       Ox        lj       1.08378E-01  3.13885E+00
                Cx      Cx        lj       5.94800E-02  2.74500E+00
                Cx      Ox        lj       1.00624E-01  2.88100E+00
                Ox      Ox        lj       1.70230E-01  3.01700E+00

 configuration file name: 

          calf-15_T173K_STRUC_P1                                                          


 selected image convention               3


 simulation cell vectors


                        27.606794    0.000000    0.000000
                         0.000000   25.927824    0.000000
                         0.000000    0.000000   33.663692


 system volume            24095.9351564    


             summary of rigid body set up

 group of type          1
             total mass           44.0095000000
             rot. inertia         42.2448477588       42.2448477588        0.0000000000

             site        a coord        b coord        c coord
                1    0.00000E+00    0.00000E+00    0.00000E+00
                2    0.00000E+00    0.00000E+00    1.14900E+00
                3    0.00000E+00    0.00000E+00   -1.14900E+00


 total degrees of freedom                         2.
 rotational degrees of freedom                    2.
 shell pseudo degrees of freedom                  0.


 sample of starting configuration

      i       x(i)        y(i)        z(i)       vx(i)       vy(i)       vz(i)


      1  1.2220E+01  9.0896E+00  1.3356E+01  0.0000E+00  0.0000E+00  0.0000E+00
     85  2.7012E+00  1.2241E+01  1.1019E+01  0.0000E+00  0.0000E+00  0.0000E+00
    169  7.6384E+00  1.6476E+00  8.5686E+00  0.0000E+00  0.0000E+00  0.0000E+00
    253  7.2209E+00  1.1876E+01 -5.8980E+00  0.0000E+00  0.0000E+00  0.0000E+00
    337  1.2367E+01  1.6778E-01 -9.4346E+00  0.0000E+00  0.0000E+00  0.0000E+00
    421  5.6236E+00 -3.0935E-01  9.6957E+00  0.0000E+00  0.0000E+00  0.0000E+00
    505  1.1110E+01 -1.2238E+01  5.8126E+00  0.0000E+00  0.0000E+00  0.0000E+00
    589  7.3386E+00 -1.4677E+00  7.5363E+00  0.0000E+00  0.0000E+00  0.0000E+00
    673  6.5826E+00 -1.1876E+01 -1.0934E+01  0.0000E+00  0.0000E+00  0.0000E+00
    757  1.7109E+00 -1.2640E+01 -8.6679E+00  0.0000E+00  0.0000E+00  0.0000E+00
    841 -5.6236E+00  3.0936E-01  7.1362E+00  0.0000E+00  0.0000E+00  0.0000E+00
    925 -6.2403E+00  1.0344E+01  6.9116E+00  0.0000E+00  0.0000E+00  0.0000E+00
   1009 -7.3386E+00  1.4677E+00  9.2956E+00  0.0000E+00  0.0000E+00  0.0000E+00
   1093 -6.0870E+00  1.1593E+01 -3.7252E+00  0.0000E+00  0.0000E+00  0.0000E+00
   1177 -1.7109E+00  1.2640E+01 -8.1639E+00  0.0000E+00  0.0000E+00  0.0000E+00
   1261 -7.2053E+00 -9.5403E-01  1.5214E+01  0.0000E+00  0.0000E+00  0.0000E+00
   1345 -7.5630E+00 -1.0344E+01  9.9202E+00  0.0000E+00  0.0000E+00  0.0000E+00
   1429 -7.1972E+00 -3.5446E+00  7.1894E+00  0.0000E+00  0.0000E+00  0.0000E+00
   1513 -7.7164E+00 -1.1593E+01 -1.3107E+01  0.0000E+00  0.0000E+00  0.0000E+00
   1597 -1.0089E+01 -1.2102E+01 -9.8191E+00  0.0000E+00  0.0000E+00  0.0000E+00


long range correction for: vdw energy    -0.136232E+00
                         : vdw pressure  -0.775274E-03

 time elapsed since job start =           0.003 seconds

 ------------------------------------------------------------------------------------------------------------------------

     step     eng_tot    temp_tot     eng_cfg     eng_vdw     eng_cou     eng_bnd     eng_ang     eng_dih     eng_tet
 time          eng_pv    temp_rot     vir_cfg     vir_vdw     vir_cou     vir_bnd     vir_ang     vir_con     vir_tet
 cpu time      volume    temp_shl     eng_shl     vir_shl       alpha        beta       gamma     vir_pmf       press


 ------------------------------------------------------------------------------------------------------------------------
        1 -2.2143E+04  0.0000E+00 -2.2143E+04 -7.2419E+00 -2.2136E+04  0.0000E+00  0.0000E+00  0.0000E+00  0.0000E+00
   0.000f -2.2186E+04  0.0000E+00  1.2831E+02 -3.6164E-02  1.2835E+02  0.0000E+00  0.0000E+00  0.0000E+00  0.0000E+00
   0.015s  2.4096E+04  0.0000E+00  0.0000E+00  0.0000E+00  9.0000E+01  9.0000E+01  9.0000E+01  0.0000E+00 -1.2171E-01

  rolling -2.2143E+04  0.0000E+00 -2.2143E+04 -7.2419E+00 -2.2136E+04  0.0000E+00  0.0000E+00  0.0000E+00  0.0000E+00
 averages -2.2186E+04  0.0000E+00  1.2831E+02 -3.6164E-02  1.2835E+02  0.0000E+00  0.0000E+00  0.0000E+00  0.0000E+00
           2.4096E+04  0.0000E+00  0.0000E+00  0.0000E+00  9.0000E+01  9.0000E+01  9.0000E+01  0.0000E+00 -1.2171E-01
 ------------------------------------------------------------------------------------------------------------------------


 run terminating. elapsed cpu time =   1.50000E-02, job time = *******d, close time = 2000.00s



 run terminated after       1 steps. final averages calculated over       1 steps.


 ------------------------------------------------------------------------------------------------------------------------

     step     eng_tot    temp_tot     eng_cfg     eng_vdw     eng_cou     eng_bnd     eng_ang     eng_dih     eng_tet
 time          eng_pv    temp_rot     vir_cfg     vir_vdw     vir_cou     vir_bnd     vir_ang     vir_con     vir_tet
 cpu time      volume    temp_shl     eng_shl     vir_shl       alpha        beta       gamma     vir_pmf       press


 ------------------------------------------------------------------------------------------------------------------------
        1 -2.2143E+04  0.0000E+00 -2.2143E+04 -7.2419E+00 -2.2136E+04  0.0000E+00  0.0000E+00  0.0000E+00  0.0000E+00
   0.000f -2.2186E+04  0.0000E+00  1.2831E+02 -3.6164E-02  1.2835E+02  0.0000E+00  0.0000E+00  0.0000E+00  0.0000E+00
   0.017s  2.4096E+04  0.0000E+00  0.0000E+00  0.0000E+00  9.0000E+01  9.0000E+01  9.0000E+01  0.0000E+00 -1.2171E-01

  r.m.s.   0.0000E+00  0.0000E+00  0.0000E+00  0.0000E+00  0.0000E+00  0.0000E+00  0.0000E+00  0.0000E+00  0.0000E+00
 fluctn.   0.0000E+00  0.0000E+00  0.0000E+00  0.0000E+00  0.0000E+00  0.0000E+00  0.0000E+00  0.0000E+00  0.0000E+00
           0.0000E+00  0.0000E+00  0.0000E+00  0.0000E+00  0.0000E+00  0.0000E+00  0.0000E+00  0.0000E+00  0.0000E+00
 ------------------------------------------------------------------------------------------------------------------------


            Approximate 3D Diffusion  coefficients (10^-9 m^2 / s)

            atom        D 
            Cx                NaN
            Ox                NaN
            Zn                NaN
            C                 NaN
            O                 NaN
            H                 NaN
            N                 NaN


                Average pressure tensor                                       r.m.s. fluctuations 

          -1.5884E-01 -3.0391E-03 -9.0399E-03                          0.0000E+00  0.0000E+00  0.0000E+00
          -3.0391E-03 -8.7688E-02 -2.6985E-03                          0.0000E+00  0.0000E+00  0.0000E+00
          -9.0399E-03 -2.6985E-03 -1.1860E-01                          0.0000E+00  0.0000E+00  0.0000E+00

            trace/3.  -1.2171E-01


 gaussian moments of momenta. over  0.000000E+00 samples
    0.000000E+00    0.000000E+00    0.000000E+00    0.000000E+00    0.000000E+00


 sample of final configuration

      i       x(i)        y(i)        z(i)       vx(i)       vy(i)       vz(i)       fx(i)       fy(i)       fz(i)


      1  1.2220E+01  9.0896E+00  1.3356E+01  0.0000E+00  0.0000E+00  0.0000E+00  4.8833E+02 -6.7756E+02  3.5201E+01
     85  2.7012E+00  1.2241E+01  1.1019E+01  0.0000E+00  0.0000E+00  0.0000E+00  0.0000E+00  0.0000E+00  0.0000E+00
    169  7.6384E+00  1.6476E+00  8.5686E+00  0.0000E+00  0.0000E+00  0.0000E+00  0.0000E+00  0.0000E+00  0.0000E+00
    253  7.2209E+00  1.1876E+01 -5.8980E+00  0.0000E+00  0.0000E+00  0.0000E+00  0.0000E+00  0.0000E+00  0.0000E+00
    337  1.2367E+01  1.6778E-01 -9.4346E+00  0.0000E+00  0.0000E+00  0.0000E+00  0.0000E+00  0.0000E+00  0.0000E+00
    421  5.6236E+00 -3.0935E-01  9.6957E+00  0.0000E+00  0.0000E+00  0.0000E+00  0.0000E+00  0.0000E+00  0.0000E+00
    505  1.1110E+01 -1.2238E+01  5.8126E+00  0.0000E+00  0.0000E+00  0.0000E+00  0.0000E+00  0.0000E+00  0.0000E+00
    589  7.3386E+00 -1.4677E+00  7.5363E+00  0.0000E+00  0.0000E+00  0.0000E+00  0.0000E+00  0.0000E+00  0.0000E+00
    673  6.5826E+00 -1.1876E+01 -1.0934E+01  0.0000E+00  0.0000E+00  0.0000E+00  0.0000E+00  0.0000E+00  0.0000E+00
    757  1.7109E+00 -1.2640E+01 -8.6679E+00  0.0000E+00  0.0000E+00  0.0000E+00  0.0000E+00  0.0000E+00  0.0000E+00
    841 -5.6236E+00  3.0936E-01  7.1362E+00  0.0000E+00  0.0000E+00  0.0000E+00  0.0000E+00  0.0000E+00  0.0000E+00
    925 -6.2403E+00  1.0344E+01  6.9116E+00  0.0000E+00  0.0000E+00  0.0000E+00  0.0000E+00  0.0000E+00  0.0000E+00
   1009 -7.3386E+00  1.4677E+00  9.2956E+00  0.0000E+00  0.0000E+00  0.0000E+00  0.0000E+00  0.0000E+00  0.0000E+00
   1093 -6.0870E+00  1.1593E+01 -3.7252E+00  0.0000E+00  0.0000E+00  0.0000E+00  0.0000E+00  0.0000E+00  0.0000E+00
   1177 -1.7109E+00  1.2640E+01 -8.1639E+00  0.0000E+00  0.0000E+00  0.0000E+00  0.0000E+00  0.0000E+00  0.0000E+00
   1261 -7.2053E+00 -9.5403E-01  1.5214E+01  0.0000E+00  0.0000E+00  0.0000E+00  0.0000E+00  0.0000E+00  0.0000E+00
   1345 -7.5630E+00 -1.0344E+01  9.9202E+00  0.0000E+00  0.0000E+00  0.0000E+00  0.0000E+00  0.0000E+00  0.0000E+00
   1429 -7.1972E+00 -3.5446E+00  7.1894E+00  0.0000E+00  0.0000E+00  0.0000E+00  0.0000E+00  0.0000E+00  0.0000E+00
   1513 -7.7164E+00 -1.1593E+01 -1.3107E+01  0.0000E+00  0.0000E+00  0.0000E+00  0.0000E+00  0.0000E+00  0.0000E+00
   1597 -1.0089E+01 -1.2102E+01 -9.8191E+00  0.0000E+00  0.0000E+00  0.0000E+00  0.0000E+00  0.0000E+00  0.0000E+00

 time elapsed since job start =           0.017 seconds

