
                    DL_POLY Classic 1.10

                              Running on    1 nodes


 ************************************************************************************************************************
 ************************************************************************************************************************
 ************************************************************************************************************************
 ***************     # minimisation                                                                       ***************
 ************************************************************************************************************************
 ************************************************************************************************************************
 ************************************************************************************************************************


 SIMULATION CONTROL PARAMETERS


 structure optimisation requested
 convergence to minimum energy selected
 tolerance for structure optimisation      1.0000E+00         

 selected number of timesteps            1

 simulation timestep              0.0000E+00

 real space cut off               1.2500E+01

 border width of Verlet shell     1.0000E+00

 Ewald sum  precision             1.0000E-06

 Electrostatics : Ewald sum  

 Ewald convergence parameter      2.5396E-01
 Ewald kmax1 kmax2 kmax3         9    8    8

 user allocated job time (d)    ********

 job closure time        (s)    2000.000

 statistics file interval                1


SYSTEM SPECIFICATION

 energy units=kcal/ mol 


 number of molecular types               2

 molecular species type                  1


 name of species:             &guest CO2                              

 number of molecules                     1

 number of atoms/sites                   3


 atomic characteristics:

                      site     name          mass        charge    repeat    freeze

                         1     Cx          12.01070     0.65120         1         0
                         2     Ox          15.99940    -0.32560         1         0
                         3     Ox          15.99940    -0.32560         1         0

 number of rigid units                   1

 rigid body details:

                           unit   indices

                              1         1         2         3

 molecular species type                  2


 name of species:             Framework                               

 number of molecules                    36

 number of atoms/sites                  44


 atomic characteristics:

                      site     name          mass        charge    repeat    freeze

                         4     Zn          65.38000     0.83350         1         1
                         5     Zn          65.38000     0.83340         1         1
                         6     Zn          65.38000     0.83339         1         1
                         7     Zn          65.38000     0.83341         1         1
                         8     O           15.99940    -0.56818         1         1
                         9     O           15.99940    -0.56811         1         1
                        10     O           15.99940    -0.56809         1         1
                        11     O           15.99940    -0.56811         1         1
                        12     N           14.00670    -0.33473         1         1
                        13     N           14.00670    -0.33475         1         1
                        14     N           14.00670    -0.33478         1         1
                        15     N           14.00670    -0.33478         1         1
                        16     C           12.01070     0.49914         1         1
                        17     C           12.01070     0.49912         1         1
                        18     C           12.01070     0.49910         1         1
                        19     C           12.01070     0.49913         1         1
                        20     O           15.99940    -0.47780         1         1
                        21     O           15.99940    -0.47783         1         1
                        22     O           15.99940    -0.47786         1         1
                        23     O           15.99940    -0.47784         1         1
                        24     N           14.00670    -0.15990         1         1
                        25     N           14.00670    -0.15989         1         1
                        26     N           14.00670    -0.15981         1         1
                        27     N           14.00670    -0.15985         1         1
                        28     C           12.01070     0.24396         1         1
                        29     C           12.01070     0.24398         1         1
                        30     C           12.01070     0.24387         1         1
                        31     C           12.01070     0.24393         1         1
                        32     N           14.00670    -0.42084         1         1
                        33     N           14.00670    -0.42095         1         1
                        34     N           14.00670    -0.42084         1         1
                        35     N           14.00670    -0.42088         1         1
                        36     C           12.01070     0.23614         1         1
                        37     C           12.01070     0.23627         1         1
                        38     C           12.01070     0.23623         1         1
                        39     C           12.01070     0.23626         1         1
                        40     H            1.00794     0.08057         1         1
                        41     H            1.00794     0.08057         1         1
                        42     H            1.00794     0.08060         1         1
                        43     H            1.00794     0.08058         1         1
                        44     H            1.00794     0.06821         1         1
                        45     H            1.00794     0.06816         1         1
                        46     H            1.00794     0.06817         1         1
                        47     H            1.00794     0.06817         1         1

  *** warning - total system charge:    0.000144 ***


 number of specified pair potentials        28


                atom 1  atom 2      key                              parameters


                C       C         lj       1.04328E-01  3.43100E+00
                C       H         lj       6.75360E-02  3.00100E+00
                C       N         lj       8.45730E-02  3.34600E+00
                C       O         lj       7.88650E-02  3.27450E+00
                C       Zn        lj       1.13375E-01  2.94650E+00
                C       Cx        lj       7.84690E-02  3.08800E+00
                C       Ox        lj       1.32827E-01  3.22400E+00
                H       H         lj       4.37180E-02  2.57100E+00
                H       N         lj       5.47470E-02  2.91600E+00
                H       O         lj       5.10520E-02  2.84450E+00
                H       Zn        lj       7.33920E-02  2.51650E+00
                H       Cx        lj       5.07960E-02  2.65800E+00
                H       Ox        lj       8.59840E-02  2.79400E+00
                N       N         lj       6.85590E-02  3.26100E+00
                N       O         lj       6.39310E-02  3.18950E+00
                N       Zn        lj       9.19070E-02  2.86150E+00
                N       Cx        lj       6.36110E-02  3.00300E+00
                N       Ox        lj       1.07675E-01  3.13900E+00
                O       O         lj       5.96160E-02  3.11800E+00
                O       Zn        lj       8.57040E-02  2.79000E+00
                O       Cx        lj       5.93170E-02  2.93150E+00
                O       Ox        lj       1.00408E-01  3.06750E+00
                Zn      Zn        lj       1.23207E-01  2.46200E+00
                Zn      Cx        lj       8.52740E-02  2.60350E+00
                Zn      Ox        lj       1.44345E-01  2.73950E+00
                Cx      Cx        lj       5.90200E-02  2.74500E+00
                Cx      Ox        lj       9.99050E-02  2.88100E+00
                Ox      Ox        lj       1.69111E-01  3.01700E+00

 configuration file name: 

          framework                                                                       


 selected image convention               3


 simulation cell vectors


                        35.746894    0.000000    0.000000
                         0.000000   29.530636    0.000000
                       -12.726416    0.000000   25.374344


 system volume            26785.8811870    


             summary of rigid body set up

 group of type          1
             total mass           44.0095000000
             rot. inertia         42.2448477588       42.2448477588        0.0000000000

             site        a coord        b coord        c coord
                1    0.00000E+00   -0.00000E+00   -0.00000E+00
                2    0.00000E+00   -0.00000E+00    1.14900E+00
                3    0.00000E+00   -0.00000E+00   -1.14900E+00


 total degrees of freedom                         2.
 rotational degrees of freedom                    2.
 shell pseudo degrees of freedom                  0.


 sample of starting configuration

      i       x(i)        y(i)        z(i)       vx(i)       vy(i)       vz(i)


      1  2.3620E+00 -3.3143E-02  4.1997E+00  0.0000E+00  0.0000E+00  0.0000E+00
     81  3.5013E+00  1.8903E+00  1.0562E+01  0.0000E+00  0.0000E+00  0.0000E+00
    161  7.3318E-01  1.2314E+01  1.5357E+00  0.0000E+00  0.0000E+00  0.0000E+00
    241  3.6222E+00 -1.0098E+01 -1.4973E+00  0.0000E+00  0.0000E+00  0.0000E+00
    321  3.8751E+00 -8.8029E+00  9.6335E+00  0.0000E+00  0.0000E+00  0.0000E+00
    401  1.6039E+01  9.2670E+00  5.2775E-01  0.0000E+00  0.0000E+00  0.0000E+00
    481  6.3700E+00  3.0050E+00  9.9281E+00  0.0000E+00  0.0000E+00  0.0000E+00
    561  8.6769E+00  1.2660E+01  2.3680E+00  0.0000E+00  0.0000E+00  0.0000E+00
    641  1.3627E+01  1.1264E+01 -7.6540E+00  0.0000E+00  0.0000E+00  0.0000E+00
    721  1.7764E+01 -2.7140E-01 -9.1629E+00  0.0000E+00  0.0000E+00  0.0000E+00
    801 -1.6375E+01  9.1507E+00  7.4962E+00  0.0000E+00  0.0000E+00  0.0000E+00
    881 -1.5341E+01  1.8310E+00  1.1049E+01  0.0000E+00  0.0000E+00  0.0000E+00
    961 -1.0130E+01  1.1734E+01  2.1041E+00  0.0000E+00  0.0000E+00  0.0000E+00
   1041 -1.2898E+01  1.2314E+01 -6.9224E+00  0.0000E+00  0.0000E+00  0.0000E+00
   1121 -1.0009E+01 -2.5476E-01 -9.9555E+00  0.0000E+00  0.0000E+00  0.0000E+00
   1201 -8.1947E-01  1.0407E+00  1.1754E+00  0.0000E+00  0.0000E+00  0.0000E+00
   1281  2.4079E+00  9.2670E+00 -7.9304E+00  0.0000E+00  0.0000E+00  0.0000E+00
   1361 -7.2613E+00  1.2849E+01  1.4700E+00  0.0000E+00  0.0000E+00  0.0000E+00
   1441 -4.9544E+00  1.2660E+01 -6.0901E+00  0.0000E+00  0.0000E+00  0.0000E+00
   1521 -1.2730E+01 -8.4229E+00  9.2622E+00  0.0000E+00  0.0000E+00  0.0000E+00


long range correction for: vdw energy    -0.120713E+00
                         : vdw pressure  -0.617971E-03

 time elapsed since job start =           0.004 seconds

 ------------------------------------------------------------------------------------------------------------------------

     step     eng_tot    temp_tot     eng_cfg     eng_vdw     eng_cou     eng_bnd     eng_ang     eng_dih     eng_tet
 time          eng_pv    temp_rot     vir_cfg     vir_vdw     vir_cou     vir_bnd     vir_ang     vir_con     vir_tet
 cpu time      volume    temp_shl     eng_shl     vir_shl       alpha        beta       gamma     vir_pmf       press


 ------------------------------------------------------------------------------------------------------------------------
        1 -1.3244E+04  0.0000E+00 -1.3244E+04 -6.6969E+00 -1.3238E+04  0.0000E+00  0.0000E+00  0.0000E+00  0.0000E+00
   0.000f -1.3303E+04  0.0000E+00  1.7620E+02  2.0032E+01  1.5617E+02  0.0000E+00  0.0000E+00  0.0000E+00  0.0000E+00
   0.015s  2.6786E+04  0.0000E+00  0.0000E+00  0.0000E+00  9.0000E+01  1.1664E+02  9.0000E+01  0.0000E+00 -1.5035E-01

  rolling -1.3244E+04  0.0000E+00 -1.3244E+04 -6.6969E+00 -1.3238E+04  0.0000E+00  0.0000E+00  0.0000E+00  0.0000E+00
 averages -1.3303E+04  0.0000E+00  1.7620E+02  2.0032E+01  1.5617E+02  0.0000E+00  0.0000E+00  0.0000E+00  0.0000E+00
           2.6786E+04  0.0000E+00  0.0000E+00  0.0000E+00  9.0000E+01  1.1664E+02  9.0000E+01  0.0000E+00 -1.5035E-01
 ------------------------------------------------------------------------------------------------------------------------


 run terminating. elapsed cpu time =   1.50000E-02, job time = *******d, close time = 2000.00s



 run terminated after       1 steps. final averages calculated over       1 steps.


 ------------------------------------------------------------------------------------------------------------------------

     step     eng_tot    temp_tot     eng_cfg     eng_vdw     eng_cou     eng_bnd     eng_ang     eng_dih     eng_tet
 time          eng_pv    temp_rot     vir_cfg     vir_vdw     vir_cou     vir_bnd     vir_ang     vir_con     vir_tet
 cpu time      volume    temp_shl     eng_shl     vir_shl       alpha        beta       gamma     vir_pmf       press


 ------------------------------------------------------------------------------------------------------------------------
        1 -1.3244E+04  0.0000E+00 -1.3244E+04 -6.6969E+00 -1.3238E+04  0.0000E+00  0.0000E+00  0.0000E+00  0.0000E+00
   0.000f -1.3303E+04  0.0000E+00  1.7620E+02  2.0032E+01  1.5617E+02  0.0000E+00  0.0000E+00  0.0000E+00  0.0000E+00
   0.019s  2.6786E+04  0.0000E+00  0.0000E+00  0.0000E+00  9.0000E+01  1.1664E+02  9.0000E+01  0.0000E+00 -1.5035E-01

  r.m.s.   0.0000E+00  0.0000E+00  0.0000E+00  0.0000E+00  0.0000E+00  0.0000E+00  0.0000E+00  0.0000E+00  0.0000E+00
 fluctn.   0.0000E+00  0.0000E+00  0.0000E+00  0.0000E+00  0.0000E+00  0.0000E+00  0.0000E+00  0.0000E+00  0.0000E+00
           0.0000E+00  0.0000E+00  0.0000E+00  0.0000E+00  0.0000E+00  0.0000E+00  0.0000E+00  0.0000E+00  0.0000E+00
 ------------------------------------------------------------------------------------------------------------------------


            Approximate 3D Diffusion  coefficients (10^-9 m^2 / s)

            atom        D 
            Cx                NaN
            Ox                NaN
            Zn                NaN
            O                 NaN
            N                 NaN
            C                 NaN
            H                 NaN


                Average pressure tensor                                       r.m.s. fluctuations 

          -1.8845E-01 -5.7389E-03 -1.0602E-01                          0.0000E+00  0.0000E+00  0.0000E+00
          -5.7389E-03 -8.2042E-02  9.3536E-03                          0.0000E+00  0.0000E+00  0.0000E+00
          -1.0602E-01  9.3536E-03 -1.8055E-01                          0.0000E+00  0.0000E+00  0.0000E+00

            trace/3.  -1.5035E-01


 gaussian moments of momenta. over  0.000000E+00 samples
    0.000000E+00    0.000000E+00    0.000000E+00    0.000000E+00    0.000000E+00


 sample of final configuration

      i       x(i)        y(i)        z(i)       vx(i)       vy(i)       vz(i)       fx(i)       fy(i)       fz(i)


      1  2.3620E+00 -3.3143E-02  4.1997E+00  0.0000E+00  0.0000E+00  0.0000E+00  1.0541E+01  5.9394E+01 -4.7826E+01
     81  3.5013E+00  1.8903E+00  1.0562E+01  0.0000E+00  0.0000E+00  0.0000E+00  0.0000E+00  0.0000E+00  0.0000E+00
    161  7.3318E-01  1.2314E+01  1.5357E+00  0.0000E+00  0.0000E+00  0.0000E+00  0.0000E+00  0.0000E+00  0.0000E+00
    241  3.6222E+00 -1.0098E+01 -1.4973E+00  0.0000E+00  0.0000E+00  0.0000E+00  0.0000E+00  0.0000E+00  0.0000E+00
    321  3.8751E+00 -8.8029E+00  9.6335E+00  0.0000E+00  0.0000E+00  0.0000E+00  0.0000E+00  0.0000E+00  0.0000E+00
    401  1.6039E+01  9.2670E+00  5.2775E-01  0.0000E+00  0.0000E+00  0.0000E+00  0.0000E+00  0.0000E+00  0.0000E+00
    481  6.3700E+00  3.0050E+00  9.9281E+00  0.0000E+00  0.0000E+00  0.0000E+00  0.0000E+00  0.0000E+00  0.0000E+00
    561  8.6769E+00  1.2660E+01  2.3680E+00  0.0000E+00  0.0000E+00  0.0000E+00  0.0000E+00  0.0000E+00  0.0000E+00
    641  1.3627E+01  1.1264E+01 -7.6540E+00  0.0000E+00  0.0000E+00  0.0000E+00  0.0000E+00  0.0000E+00  0.0000E+00
    721  1.7764E+01 -2.7140E-01 -9.1629E+00  0.0000E+00  0.0000E+00  0.0000E+00  0.0000E+00  0.0000E+00  0.0000E+00
    801 -1.6375E+01  9.1507E+00  7.4962E+00  0.0000E+00  0.0000E+00  0.0000E+00  0.0000E+00  0.0000E+00  0.0000E+00
    881 -1.5341E+01  1.8310E+00  1.1049E+01  0.0000E+00  0.0000E+00  0.0000E+00  0.0000E+00  0.0000E+00  0.0000E+00
    961 -1.0130E+01  1.1734E+01  2.1041E+00  0.0000E+00  0.0000E+00  0.0000E+00  0.0000E+00  0.0000E+00  0.0000E+00
   1041 -1.2898E+01  1.2314E+01 -6.9224E+00  0.0000E+00  0.0000E+00  0.0000E+00  0.0000E+00  0.0000E+00  0.0000E+00
   1121 -1.0009E+01 -2.5476E-01 -9.9555E+00  0.0000E+00  0.0000E+00  0.0000E+00  0.0000E+00  0.0000E+00  0.0000E+00
   1201 -8.1947E-01  1.0407E+00  1.1754E+00  0.0000E+00  0.0000E+00  0.0000E+00  0.0000E+00  0.0000E+00  0.0000E+00
   1281  2.4079E+00  9.2670E+00 -7.9304E+00  0.0000E+00  0.0000E+00  0.0000E+00  0.0000E+00  0.0000E+00  0.0000E+00
   1361 -7.2613E+00  1.2849E+01  1.4700E+00  0.0000E+00  0.0000E+00  0.0000E+00  0.0000E+00  0.0000E+00  0.0000E+00
   1441 -4.9544E+00  1.2660E+01 -6.0901E+00  0.0000E+00  0.0000E+00  0.0000E+00  0.0000E+00  0.0000E+00  0.0000E+00
   1521 -1.2730E+01 -8.4229E+00  9.2622E+00  0.0000E+00  0.0000E+00  0.0000E+00  0.0000E+00  0.0000E+00  0.0000E+00

 time elapsed since job start =           0.019 seconds

