
                    DL_POLY Classic 1.10

                              Running on    1 nodes


 ************************************************************************************************************************
 ************************************************************************************************************************
 ************************************************************************************************************************
 ***************     # minimisation                                                                       ***************
 ************************************************************************************************************************
 ************************************************************************************************************************
 ************************************************************************************************************************


 SIMULATION CONTROL PARAMETERS


 structure optimisation requested
 convergence to minimum energy selected
 tolerance for structure optimisation      1.0000E+00         

 selected number of timesteps            1

 simulation timestep              0.0000E+00

 real space cut off               1.2500E+01

 border width of Verlet shell     1.0000E+00

 Ewald sum  precision             1.0000E-06

 Electrostatics : Ewald sum  

 Ewald convergence parameter      2.5396E-01
 Ewald kmax1 kmax2 kmax3         8    8   10

 user allocated job time (d)    ********

 job closure time        (s)    2000.000

 statistics file interval                1


SYSTEM SPECIFICATION

 energy units=kcal/ mol 


 number of molecular types               2

 molecular species type                  1


 name of species:             &guest CO2: Carbon Dioxide for Adsorptio

 number of molecules                     1

 number of atoms/sites                   3


 atomic characteristics:

                      site     name          mass        charge    repeat    freeze

                         1     Cx          12.01070     0.00000         1         0
                         2     Ox          15.99940     0.00000         1         0
                         3     Ox          15.99940     0.00000         1         0

 number of rigid units                   1

 rigid body details:

                           unit   indices

                              1         1         2         3

 molecular species type                  2


 name of species:             Framework                               

 number of molecules                    27

 number of atoms/sites                  68


 atomic characteristics:

                      site     name          mass        charge    repeat    freeze

                         4     Zn          65.38000     1.03229         1         1
                         5     Zn          65.38000     1.02586         1         1
                         6     Zn          65.38000     0.88697         1         1
                         7     Zn          65.38000     0.90226         1         1
                         8     Zn          65.38000     1.14785         1         1
                         9     Zn          65.38000     1.15514         1         1
                        10     P           30.97376     1.60605         1         1
                        11     P           30.97376     1.57342         1         1
                        12     O           15.99940    -0.83299         1         1
                        13     O           15.99940    -0.83167         1         1
                        14     O           15.99940    -0.71557         1         1
                        15     O           15.99940    -0.70932         1         1
                        16     O           15.99940    -0.77730         1         1
                        17     O           15.99940    -0.76533         1         1
                        18     O           15.99940    -1.00177         1         1
                        19     O           15.99940    -0.99020         1         1
                        20     C           12.01070     0.92795         1         1
                        21     C           12.01070     0.91402         1         1
                        22     C           12.01070     0.38603         1         1
                        23     C           12.01070     0.38153         1         1
                        24     H            1.00794     0.06248         1         1
                        25     H            1.00794     0.06394         1         1
                        26     C           12.01070     0.86113         1         1
                        27     C           12.01070     0.83804         1         1
                        28     C           12.01070     0.27654         1         1
                        29     C           12.01070     0.28121         1         1
                        30     H            1.00794     0.00597         1         1
                        31     H            1.00794     0.00317         1         1
                        32     C           12.01070     0.78450         1         1
                        33     C           12.01070     0.85301         1         1
                        34     C           12.01070     0.26905         1         1
                        35     C           12.01070     0.22824         1         1
                        36     H            1.00794     0.05734         1         1
                        37     H            1.00794     0.07159         1         1
                        38     N           14.00670    -0.76861         1         1
                        39     N           14.00670    -0.75583         1         1
                        40     N           14.00670    -0.25478         1         1
                        41     N           14.00670    -0.25557         1         1
                        42     N           14.00670    -0.54450         1         1
                        43     N           14.00670    -0.54400         1         1
                        44     N           14.00670    -0.95592         1         1
                        45     N           14.00670    -0.93729         1         1
                        46     N           14.00670    -0.56870         1         1
                        47     N           14.00670    -0.55960         1         1
                        48     N           14.00670    -0.47749         1         1
                        49     N           14.00670    -0.45973         1         1
                        50     N           14.00670    -0.27369         1         1
                        51     N           14.00670    -0.29271         1         1
                        52     N           14.00670    -0.23755         1         1
                        53     N           14.00670    -0.23205         1         1
                        54     N           14.00670    -0.39481         1         1
                        55     N           14.00670    -0.37628         1         1
                        56     N           14.00670    -0.32775         1         1
                        57     N           14.00670    -0.38406         1         1
                        58     N           14.00670    -0.56130         1         1
                        59     N           14.00670    -0.56096         1         1
                        60     N           14.00670    -1.03611         1         1
                        61     N           14.00670    -1.11002         1         1
                        62     H            1.00794     0.54777         1         1
                        63     H            1.00794     0.56433         1         1
                        64     O           15.99940    -0.25488         1         1
                        65     O           15.99940    -0.24931         1         1
                        66     H            1.00794     0.37676         1         1
                        67     H            1.00794     0.37399         1         1
                        68     H            1.00794     0.37222         1         1
                        69     H            1.00794     0.36613         1         1
                        70     H            1.00794     0.38897         1         1
                        71     H            1.00794     0.41190         1         1

  *** warning - total system charge:   -0.000108 ***


 number of specified pair potentials        36


                atom 1  atom 2      key                              parameters


                Zn      Zn        lj       0.00000E+00  0.00000E+00
                Zn      P         lj       0.00000E+00  0.00000E+00
                Zn      O         lj       0.00000E+00  0.00000E+00
                Zn      C         lj       0.00000E+00  0.00000E+00
                Zn      H         lj       0.00000E+00  0.00000E+00
                Zn      N         lj       0.00000E+00  0.00000E+00
                Zn      Cx        lj       0.00000E+00  0.00000E+00
                Zn      Ox        lj       0.00000E+00  0.00000E+00
                P       P         lj       0.00000E+00  0.00000E+00
                P       O         lj       0.00000E+00  0.00000E+00
                P       C         lj       0.00000E+00  0.00000E+00
                P       H         lj       0.00000E+00  0.00000E+00
                P       N         lj       0.00000E+00  0.00000E+00
                P       Cx        lj       0.00000E+00  0.00000E+00
                P       Ox        lj       0.00000E+00  0.00000E+00
                O       O         lj       0.00000E+00  0.00000E+00
                O       C         lj       0.00000E+00  0.00000E+00
                O       H         lj       0.00000E+00  0.00000E+00
                O       N         lj       0.00000E+00  0.00000E+00
                O       Cx        lj       0.00000E+00  0.00000E+00
                O       Ox        lj       0.00000E+00  0.00000E+00
                C       C         lj       0.00000E+00  0.00000E+00
                C       H         lj       0.00000E+00  0.00000E+00
                C       N         lj       0.00000E+00  0.00000E+00
                C       Cx        lj       0.00000E+00  0.00000E+00
                C       Ox        lj       0.00000E+00  0.00000E+00
                H       H         lj       0.00000E+00  0.00000E+00
                H       N         lj       0.00000E+00  0.00000E+00
                H       Cx        lj       0.00000E+00  0.00000E+00
                H       Ox        lj       0.00000E+00  0.00000E+00
                N       N         lj       0.00000E+00  0.00000E+00
                N       Cx        lj       0.00000E+00  0.00000E+00
                N       Ox        lj       0.00000E+00  0.00000E+00
                Cx      Cx        lj       0.00000E+00  0.00000E+00
                Cx      Ox        lj       0.00000E+00  0.00000E+00
                Ox      Ox        lj       0.00000E+00  0.00000E+00

 configuration file name: 

          calf-16_opt_repeat                                                              


 selected image convention               3


 simulation cell vectors


                        28.341007    0.000000    0.000000
                        -7.554533   28.592829    0.000000
                        -3.333273  -13.623550   36.162440


 system volume            29304.2176172    


             summary of rigid body set up

 group of type          1
             total mass           44.0095000000
             rot. inertia         27.6485933323       27.6485933323        0.0000000000

             site        a coord        b coord        c coord
                1    0.00000E+00    0.00000E+00   -1.09063E+00
                2    0.00000E+00    0.00000E+00   -9.06327E-02
                3    0.00000E+00    0.00000E+00    9.09367E-01


 total degrees of freedom                         2.
 rotational degrees of freedom                    2.
 shell pseudo degrees of freedom                  0.


 sample of starting configuration

      i       x(i)        y(i)        z(i)       vx(i)       vy(i)       vz(i)


      1  0.0000E+00  0.0000E+00  0.0000E+00  0.0000E+00  0.0000E+00  0.0000E+00
     93  7.9942E+00  6.5867E+00 -1.3624E+01  0.0000E+00  0.0000E+00  0.0000E+00
    185  2.4221E+00  4.6206E+00 -4.8398E+00  0.0000E+00  0.0000E+00  0.0000E+00
    277  4.7918E+00  1.8650E+01 -1.5189E+01  0.0000E+00  0.0000E+00  0.0000E+00
    369  7.2648E-01  1.4747E+01 -2.9340E+00  0.0000E+00  0.0000E+00  0.0000E+00
    461  5.8685E+00 -1.0015E+01  6.1343E+00  0.0000E+00  0.0000E+00  0.0000E+00
    553  9.4973E+00  3.3500E-01 -5.7836E+00  0.0000E+00  0.0000E+00  0.0000E+00
    645  7.5131E+00  3.1395E+00  7.6580E+00  0.0000E+00  0.0000E+00  0.0000E+00
    737  9.5880E+00  1.1075E+01 -1.5807E+01  0.0000E+00  0.0000E+00  0.0000E+00
    829 -1.3500E+01  8.4318E+00  8.7971E+00  0.0000E+00  0.0000E+00  0.0000E+00
    921 -7.2759E+00 -7.1445E+00 -1.6683E+01  0.0000E+00  0.0000E+00  0.0000E+00
   1013  1.4833E+01 -1.0777E+01 -4.6517E+00  0.0000E+00  0.0000E+00  0.0000E+00
   1105 -9.3029E+00  5.9009E+00 -1.6556E+01  0.0000E+00  0.0000E+00  0.0000E+00
   1197 -8.6931E+00 -1.0077E+00 -1.1103E+01  0.0000E+00  0.0000E+00  0.0000E+00
   1289 -4.8879E+00  4.5486E-01  5.7498E+00  0.0000E+00  0.0000E+00  0.0000E+00
   1381 -3.0703E+00  4.7425E+00 -8.0782E-02  0.0000E+00  0.0000E+00  0.0000E+00
   1473  4.1668E-01 -1.7619E+01  1.2006E+01  0.0000E+00  0.0000E+00  0.0000E+00
   1565  6.9488E-01 -1.7085E+01  1.2843E+01  0.0000E+00  0.0000E+00  0.0000E+00
   1657 -1.1568E+00 -1.2027E+01  1.0484E+01  0.0000E+00  0.0000E+00  0.0000E+00
   1749 -3.3957E+00 -3.6915E-01 -1.6894E+01  0.0000E+00  0.0000E+00  0.0000E+00


long range correction for: vdw energy     0.000000E+00
                         : vdw pressure  -0.000000E+00

 time elapsed since job start =           0.004 seconds

 ------------------------------------------------------------------------------------------------------------------------

     step     eng_tot    temp_tot     eng_cfg     eng_vdw     eng_cou     eng_bnd     eng_ang     eng_dih     eng_tet
 time          eng_pv    temp_rot     vir_cfg     vir_vdw     vir_cou     vir_bnd     vir_ang     vir_con     vir_tet
 cpu time      volume    temp_shl     eng_shl     vir_shl       alpha        beta       gamma     vir_pmf       press


 ------------------------------------------------------------------------------------------------------------------------
        1 -4.1211E+04  0.0000E+00 -4.1211E+04  0.0000E+00 -4.1211E+04  0.0000E+00  0.0000E+00  0.0000E+00  0.0000E+00
   0.000f -4.1405E+04  0.0000E+00  5.8012E+02  0.0000E+00  5.8012E+02  0.0000E+00  0.0000E+00  0.0000E+00  0.0000E+00
   0.019s  2.9304E+04  0.0000E+00  0.0000E+00  0.0000E+00  1.0852E+02  9.4930E+01  1.0480E+02  0.0000E+00 -4.5247E-01

  rolling -4.1211E+04  0.0000E+00 -4.1211E+04  0.0000E+00 -4.1211E+04  0.0000E+00  0.0000E+00  0.0000E+00  0.0000E+00
 averages -4.1405E+04  0.0000E+00  5.8012E+02  0.0000E+00  5.8012E+02  0.0000E+00  0.0000E+00  0.0000E+00  0.0000E+00
           2.9304E+04  0.0000E+00  0.0000E+00  0.0000E+00  1.0852E+02  9.4930E+01  1.0480E+02  0.0000E+00 -4.5247E-01
 ------------------------------------------------------------------------------------------------------------------------


 run terminating. elapsed cpu time =   1.90000E-02, job time = *******d, close time = 2000.00s



 run terminated after       1 steps. final averages calculated over       1 steps.


 ------------------------------------------------------------------------------------------------------------------------

     step     eng_tot    temp_tot     eng_cfg     eng_vdw     eng_cou     eng_bnd     eng_ang     eng_dih     eng_tet
 time          eng_pv    temp_rot     vir_cfg     vir_vdw     vir_cou     vir_bnd     vir_ang     vir_con     vir_tet
 cpu time      volume    temp_shl     eng_shl     vir_shl       alpha        beta       gamma     vir_pmf       press


 ------------------------------------------------------------------------------------------------------------------------
        1 -4.1211E+04  0.0000E+00 -4.1211E+04  0.0000E+00 -4.1211E+04  0.0000E+00  0.0000E+00  0.0000E+00  0.0000E+00
   0.000f -4.1405E+04  0.0000E+00  5.8012E+02  0.0000E+00  5.8012E+02  0.0000E+00  0.0000E+00  0.0000E+00  0.0000E+00
   0.021s  2.9304E+04  0.0000E+00  0.0000E+00  0.0000E+00  1.0852E+02  9.4930E+01  1.0480E+02  0.0000E+00 -4.5247E-01

  r.m.s.   0.0000E+00  0.0000E+00  0.0000E+00  0.0000E+00  0.0000E+00  0.0000E+00  0.0000E+00  0.0000E+00  0.0000E+00
 fluctn.   0.0000E+00  0.0000E+00  0.0000E+00  0.0000E+00  0.0000E+00  0.0000E+00  0.0000E+00  0.0000E+00  0.0000E+00
           0.0000E+00  0.0000E+00  0.0000E+00  0.0000E+00  0.0000E+00  0.0000E+00  0.0000E+00  0.0000E+00  0.0000E+00
 ------------------------------------------------------------------------------------------------------------------------


            Approximate 3D Diffusion  coefficients (10^-9 m^2 / s)

            atom        D 
            Cx                NaN
            Ox                NaN
            Zn                NaN
            P                 NaN
            O                 NaN
            C                 NaN
            H                 NaN
            N                 NaN


                Average pressure tensor                                       r.m.s. fluctuations 

           4.9610E-02  7.1723E-02 -4.3680E-03                          0.0000E+00  0.0000E+00  0.0000E+00
           7.1723E-02 -1.2827E+00 -6.1364E-01                          0.0000E+00  0.0000E+00  0.0000E+00
          -4.3680E-03 -6.1364E-01 -1.2433E-01                          0.0000E+00  0.0000E+00  0.0000E+00

            trace/3.  -4.5247E-01


 gaussian moments of momenta. over  0.000000E+00 samples
    0.000000E+00    0.000000E+00    0.000000E+00    0.000000E+00    0.000000E+00


 sample of final configuration

      i       x(i)        y(i)        z(i)       vx(i)       vy(i)       vz(i)       fx(i)       fy(i)       fz(i)


      1  0.0000E+00  0.0000E+00  0.0000E+00  0.0000E+00  0.0000E+00  0.0000E+00  0.0000E+00  0.0000E+00  0.0000E+00
     93  7.9942E+00  6.5867E+00 -1.3624E+01  0.0000E+00  0.0000E+00  0.0000E+00  0.0000E+00  0.0000E+00  0.0000E+00
    185  2.4221E+00  4.6206E+00 -4.8398E+00  0.0000E+00  0.0000E+00  0.0000E+00  0.0000E+00  0.0000E+00  0.0000E+00
    277  4.7918E+00  1.8650E+01 -1.5189E+01  0.0000E+00  0.0000E+00  0.0000E+00  0.0000E+00  0.0000E+00  0.0000E+00
    369  7.2648E-01  1.4747E+01 -2.9340E+00  0.0000E+00  0.0000E+00  0.0000E+00  0.0000E+00  0.0000E+00  0.0000E+00
    461  5.8685E+00 -1.0015E+01  6.1343E+00  0.0000E+00  0.0000E+00  0.0000E+00  0.0000E+00  0.0000E+00  0.0000E+00
    553  9.4973E+00  3.3500E-01 -5.7836E+00  0.0000E+00  0.0000E+00  0.0000E+00  0.0000E+00  0.0000E+00  0.0000E+00
    645  7.5131E+00  3.1395E+00  7.6580E+00  0.0000E+00  0.0000E+00  0.0000E+00  0.0000E+00  0.0000E+00  0.0000E+00
    737  9.5880E+00  1.1075E+01 -1.5807E+01  0.0000E+00  0.0000E+00  0.0000E+00  0.0000E+00  0.0000E+00  0.0000E+00
    829 -1.3500E+01  8.4318E+00  8.7971E+00  0.0000E+00  0.0000E+00  0.0000E+00  0.0000E+00  0.0000E+00  0.0000E+00
    921 -7.2759E+00 -7.1445E+00 -1.6683E+01  0.0000E+00  0.0000E+00  0.0000E+00  0.0000E+00  0.0000E+00  0.0000E+00
   1013  1.4833E+01 -1.0777E+01 -4.6517E+00  0.0000E+00  0.0000E+00  0.0000E+00  0.0000E+00  0.0000E+00  0.0000E+00
   1105 -9.3029E+00  5.9009E+00 -1.6556E+01  0.0000E+00  0.0000E+00  0.0000E+00  0.0000E+00  0.0000E+00  0.0000E+00
   1197 -8.6931E+00 -1.0077E+00 -1.1103E+01  0.0000E+00  0.0000E+00  0.0000E+00  0.0000E+00  0.0000E+00  0.0000E+00
   1289 -4.8879E+00  4.5486E-01  5.7498E+00  0.0000E+00  0.0000E+00  0.0000E+00  0.0000E+00  0.0000E+00  0.0000E+00
   1381 -3.0703E+00  4.7425E+00 -8.0782E-02  0.0000E+00  0.0000E+00  0.0000E+00  0.0000E+00  0.0000E+00  0.0000E+00
   1473  4.1668E-01 -1.7619E+01  1.2006E+01  0.0000E+00  0.0000E+00  0.0000E+00  0.0000E+00  0.0000E+00  0.0000E+00
   1565  6.9488E-01 -1.7085E+01  1.2843E+01  0.0000E+00  0.0000E+00  0.0000E+00  0.0000E+00  0.0000E+00  0.0000E+00
   1657 -1.1568E+00 -1.2027E+01  1.0484E+01  0.0000E+00  0.0000E+00  0.0000E+00  0.0000E+00  0.0000E+00  0.0000E+00
   1749 -3.3957E+00 -3.6915E-01 -1.6894E+01  0.0000E+00  0.0000E+00  0.0000E+00  0.0000E+00  0.0000E+00  0.0000E+00

 time elapsed since job start =           0.021 seconds

