
                    DL_POLY Classic 1.10

                              Running on    1 nodes


 ************************************************************************************************************************
 ************************************************************************************************************************
 ************************************************************************************************************************
 ***************     # minimisation                                                                       ***************
 ************************************************************************************************************************
 ************************************************************************************************************************
 ************************************************************************************************************************


 SIMULATION CONTROL PARAMETERS


 structure optimisation requested
 convergence to minimum energy selected
 tolerance for structure optimisation      1.0000E+00         

 selected number of timesteps            1

 simulation timestep              0.0000E+00

 real space cut off               1.2500E+01

 border width of Verlet shell     1.0000E+00

 Ewald sum  precision             1.0000E-06

 Electrostatics : Ewald sum  

 Ewald convergence parameter      2.5396E-01
 Ewald kmax1 kmax2 kmax3         8   11    9

 user allocated job time (d)    ********

 job closure time        (s)    2000.000

 statistics file interval                1


SYSTEM SPECIFICATION

 energy units=kcal/ mol 


 number of molecular types               2

 molecular species type                  1


 name of species:             &guest C2H2                             

 number of molecules                     1

 number of atoms/sites                   4


 atomic characteristics:

                      site     name          mass        charge    repeat    freeze

                         1     Cx          12.01070    -0.27800         1         0
                         2     Cx          12.01070    -0.27800         1         0
                         3     Hx           1.00790     0.27800         1         0
                         4     Hx           1.00790     0.27800         1         0

 number of rigid units                   1

 rigid body details:

                           unit   indices

                              1         1         2         3         4

 molecular species type                  2


 name of species:             Framework                               

 number of molecules                    36

 number of atoms/sites                  80


 atomic characteristics:

                      site     name          mass        charge    repeat    freeze

                         5     Cu          63.54600     0.46845         1         1
                         6     Cu          63.54600     0.46845         1         1
                         7     Cu          63.54600     0.46921         1         1
                         8     Cu          63.54600     0.46924         1         1
                         9     O           15.99940    -0.52266         1         1
                        10     O           15.99940    -0.52266         1         1
                        11     O           15.99940    -0.52285         1         1
                        12     O           15.99940    -0.52288         1         1
                        13     O           15.99940    -0.54486         1         1
                        14     O           15.99940    -0.54486         1         1
                        15     O           15.99940    -0.54518         1         1
                        16     O           15.99940    -0.54519         1         1
                        17     O           15.99940    -0.41503         1         1
                        18     O           15.99940    -0.41502         1         1
                        19     O           15.99940    -0.41899         1         1
                        20     O           15.99940    -0.41896         1         1
                        21     O           15.99940    -0.39736         1         1
                        22     O           15.99940    -0.39736         1         1
                        23     O           15.99940    -0.39655         1         1
                        24     O           15.99940    -0.39652         1         1
                        25     N           14.00670    -0.06083         1         1
                        26     N           14.00670    -0.06083         1         1
                        27     N           14.00670    -0.06121         1         1
                        28     N           14.00670    -0.06123         1         1
                        29     N           14.00670    -0.38403         1         1
                        30     N           14.00670    -0.38403         1         1
                        31     N           14.00670    -0.38420         1         1
                        32     N           14.00670    -0.38418         1         1
                        33     N           14.00670    -0.07863         1         1
                        34     N           14.00670    -0.07863         1         1
                        35     N           14.00670    -0.07893         1         1
                        36     N           14.00670    -0.07894         1         1
                        37     C           12.01070    -0.21614         1         1
                        38     C           12.01070    -0.21614         1         1
                        39     C           12.01070    -0.21604         1         1
                        40     C           12.01070    -0.21602         1         1
                        41     C           12.01070     0.42127         1         1
                        42     C           12.01070     0.42126         1         1
                        43     C           12.01070     0.42098         1         1
                        44     C           12.01070     0.42093         1         1
                        45     C           12.01070     0.12361         1         1
                        46     C           12.01070     0.12361         1         1
                        47     C           12.01070     0.12412         1         1
                        48     C           12.01070     0.12413         1         1
                        49     C           12.01070     0.09132         1         1
                        50     C           12.01070     0.09133         1         1
                        51     C           12.01070     0.09173         1         1
                        52     C           12.01070     0.09174         1         1
                        53     C           12.01070     0.64949         1         1
                        54     C           12.01070     0.64948         1         1
                        55     C           12.01070     0.64988         1         1
                        56     C           12.01070     0.64990         1         1
                        57     C           12.01070     0.43410         1         1
                        58     C           12.01070     0.43410         1         1
                        59     C           12.01070     0.43735         1         1
                        60     C           12.01070     0.43732         1         1
                        61     C           12.01070     0.01330         1         1
                        62     C           12.01070     0.01330         1         1
                        63     C           12.01070     0.01329         1         1
                        64     C           12.01070     0.01326         1         1
                        65     C           12.01070     0.08325         1         1
                        66     C           12.01070     0.08327         1         1
                        67     C           12.01070     0.08338         1         1
                        68     C           12.01070     0.08338         1         1
                        69     H            1.00794     0.08315         1         1
                        70     H            1.00794     0.08315         1         1
                        71     H            1.00794     0.08308         1         1
                        72     H            1.00794     0.08307         1         1
                        73     H            1.00794     0.11233         1         1
                        74     H            1.00794     0.11233         1         1
                        75     H            1.00794     0.11206         1         1
                        76     H            1.00794     0.11205         1         1
                        77     H            1.00794     0.11903         1         1
                        78     H            1.00794     0.11903         1         1
                        79     H            1.00794     0.11896         1         1
                        80     H            1.00794     0.11898         1         1
                        81     H            1.00794     0.02022         1         1
                        82     H            1.00794     0.02021         1         1
                        83     H            1.00794     0.01993         1         1
                        84     H            1.00794     0.01993         1         1


 number of specified pair potentials        28


                atom 1  atom 2      key                              parameters


                C       C         lj       1.04328E-01  3.43100E+00
                C       Cu        lj       2.27660E-02  3.27250E+00
                C       H         lj       6.75360E-02  3.00100E+00
                C       N         lj       8.45730E-02  3.34600E+00
                C       O         lj       7.88650E-02  3.27450E+00
                C       Cx        lj       1.09183E-01  3.61550E+00
                C       Hx        lj       0.00000E+00  0.00000E+00
                Cu      Cu        lj       4.96800E-03  3.11400E+00
                Cu      H         lj       1.47380E-02  2.84250E+00
                Cu      N         lj       1.84550E-02  3.18750E+00
                Cu      O         lj       1.72100E-02  3.11600E+00
                Cu      Cx        lj       2.38260E-02  3.45700E+00
                Cu      Hx        lj       0.00000E+00  0.00000E+00
                H       H         lj       4.37180E-02  2.57100E+00
                H       N         lj       5.47470E-02  2.91600E+00
                H       O         lj       5.10520E-02  2.84450E+00
                H       Cx        lj       7.06790E-02  3.18550E+00
                H       Hx        lj       0.00000E+00  0.00000E+00
                N       N         lj       6.85590E-02  3.26100E+00
                N       O         lj       6.39310E-02  3.18950E+00
                N       Cx        lj       8.85090E-02  3.53050E+00
                N       Hx        lj       0.00000E+00  0.00000E+00
                O       O         lj       5.96160E-02  3.11800E+00
                O       Cx        lj       8.25350E-02  3.45900E+00
                O       Hx        lj       0.00000E+00  0.00000E+00
                Cx      Cx        lj       1.14264E-01  3.80000E+00
                Cx      Hx        lj       0.00000E+00  0.00000E+00
                Hx      Hx        lj       0.00000E+00  0.00000E+00

 configuration file name: 

          framework                                                                       


 selected image convention               3


 simulation cell vectors


                        28.881176    0.000000    0.000000
                         0.000000   40.471007    0.000000
                        -3.882734    0.000000   31.914110


 system volume            37302.8164847    


             summary of rigid body set up

 group of type          1
             total mass           26.0372000000
             rot. inertia         14.4740365690       14.4740365690        0.0000000000

             site        a coord        b coord        c coord
                1    0.00000E+00   -0.00000E+00   -6.05500E-01
                2    0.00000E+00   -0.00000E+00    6.05500E-01
                3    0.00000E+00   -0.00000E+00   -1.67670E+00
                4    0.00000E+00   -0.00000E+00    1.67670E+00


 total degrees of freedom                         2.
 rotational degrees of freedom                    2.
 shell pseudo degrees of freedom                  0.


 sample of starting configuration

      i       x(i)        y(i)        z(i)       vx(i)       vy(i)       vz(i)


      1  4.0108E+00  4.4876E-01  4.9554E+00  0.0000E+00  0.0000E+00  0.0000E+00
    146  2.8436E+00  8.1559E-01 -1.1316E+01  0.0000E+00  0.0000E+00  0.0000E+00
    291  2.1642E+00 -3.8715E+00  4.1827E+00  0.0000E+00  0.0000E+00  0.0000E+00
    436  2.6710E+00 -1.2827E+00 -4.2468E-01  0.0000E+00  0.0000E+00  0.0000E+00
    581  7.7889E+00  3.4384E+00  1.1032E+01  0.0000E+00  0.0000E+00  0.0000E+00
    726  6.9308E+00 -1.6937E+01  9.3655E-01  0.0000E+00  0.0000E+00  0.0000E+00
    871  5.4242E+00 -1.7025E+00  1.4810E+01  0.0000E+00  0.0000E+00  0.0000E+00
   1016  1.0002E+01  1.6458E+01  7.2399E+00  0.0000E+00  0.0000E+00  0.0000E+00
   1161  1.3703E+01  3.7892E+00 -1.8753E+00  0.0000E+00  0.0000E+00  0.0000E+00
   1306  1.0593E+01 -1.5095E+01  1.2335E+01  0.0000E+00  0.0000E+00  0.0000E+00
   1451 -1.2932E+01  1.2942E+01  2.5891E+00  0.0000E+00  0.0000E+00  0.0000E+00
   1596 -9.7241E+00  1.3983E+01 -1.0863E+01  0.0000E+00  0.0000E+00  0.0000E+00
   1741 -1.2125E+01 -1.0591E+01  6.3414E+00  0.0000E+00  0.0000E+00  0.0000E+00
   1886 -1.0681E+01 -1.2762E+01 -8.9791E+00  0.0000E+00  0.0000E+00  0.0000E+00
   2031 -9.9328E+00  1.7642E+01  1.3141E+01  0.0000E+00  0.0000E+00  0.0000E+00
   2176 -9.8358E+00 -3.6904E+00  6.1518E+00  0.0000E+00  0.0000E+00  0.0000E+00
   2321 -1.0708E+01 -1.1541E+01  1.4698E+01  0.0000E+00  0.0000E+00  0.0000E+00
   2466 -4.5585E+00  8.1559E-01  9.9605E+00  0.0000E+00  0.0000E+00  0.0000E+00
   2611 -1.3551E+00  1.6364E+01 -6.4554E+00  0.0000E+00  0.0000E+00  0.0000E+00
   2756 -8.4833E-01 -1.2827E+00 -1.1063E+01  0.0000E+00  0.0000E+00  0.0000E+00


long range correction for: vdw energy    -0.223104E+00
                         : vdw pressure  -0.820060E-03

 time elapsed since job start =           0.004 seconds

 ------------------------------------------------------------------------------------------------------------------------

     step     eng_tot    temp_tot     eng_cfg     eng_vdw     eng_cou     eng_bnd     eng_ang     eng_dih     eng_tet
 time          eng_pv    temp_rot     vir_cfg     vir_vdw     vir_cou     vir_bnd     vir_ang     vir_con     vir_tet
 cpu time      volume    temp_shl     eng_shl     vir_shl       alpha        beta       gamma     vir_pmf       press


 ------------------------------------------------------------------------------------------------------------------------
        1 -1.4909E+04  0.0000E+00 -1.4909E+04 -5.8832E+00 -1.4903E+04  0.0000E+00  0.0000E+00  0.0000E+00  0.0000E+00
   0.000f -1.4954E+04  0.0000E+00  1.3489E+02 -1.5950E+01  1.5084E+02  0.0000E+00  0.0000E+00  0.0000E+00  0.0000E+00
   0.040s  3.7303E+04  0.0000E+00  0.0000E+00  0.0000E+00  9.0000E+01  9.6937E+01  9.0000E+01  0.0000E+00 -8.2650E-02

  rolling -1.4909E+04  0.0000E+00 -1.4909E+04 -5.8832E+00 -1.4903E+04  0.0000E+00  0.0000E+00  0.0000E+00  0.0000E+00
 averages -1.4954E+04  0.0000E+00  1.3489E+02 -1.5950E+01  1.5084E+02  0.0000E+00  0.0000E+00  0.0000E+00  0.0000E+00
           3.7303E+04  0.0000E+00  0.0000E+00  0.0000E+00  9.0000E+01  9.6937E+01  9.0000E+01  0.0000E+00 -8.2650E-02
 ------------------------------------------------------------------------------------------------------------------------


 run terminating. elapsed cpu time =   4.00000E-02, job time = *******d, close time = 2000.00s



 run terminated after       1 steps. final averages calculated over       1 steps.


 ------------------------------------------------------------------------------------------------------------------------

     step     eng_tot    temp_tot     eng_cfg     eng_vdw     eng_cou     eng_bnd     eng_ang     eng_dih     eng_tet
 time          eng_pv    temp_rot     vir_cfg     vir_vdw     vir_cou     vir_bnd     vir_ang     vir_con     vir_tet
 cpu time      volume    temp_shl     eng_shl     vir_shl       alpha        beta       gamma     vir_pmf       press


 ------------------------------------------------------------------------------------------------------------------------
        1 -1.4909E+04  0.0000E+00 -1.4909E+04 -5.8832E+00 -1.4903E+04  0.0000E+00  0.0000E+00  0.0000E+00  0.0000E+00
   0.000f -1.4954E+04  0.0000E+00  1.3489E+02 -1.5950E+01  1.5084E+02  0.0000E+00  0.0000E+00  0.0000E+00  0.0000E+00
   0.045s  3.7303E+04  0.0000E+00  0.0000E+00  0.0000E+00  9.0000E+01  9.6937E+01  9.0000E+01  0.0000E+00 -8.2650E-02

  r.m.s.   0.0000E+00  0.0000E+00  0.0000E+00  0.0000E+00  0.0000E+00  0.0000E+00  0.0000E+00  0.0000E+00  0.0000E+00
 fluctn.   0.0000E+00  0.0000E+00  0.0000E+00  0.0000E+00  0.0000E+00  0.0000E+00  0.0000E+00  0.0000E+00  0.0000E+00
           0.0000E+00  0.0000E+00  0.0000E+00  0.0000E+00  0.0000E+00  0.0000E+00  0.0000E+00  0.0000E+00  0.0000E+00
 ------------------------------------------------------------------------------------------------------------------------


            Approximate 3D Diffusion  coefficients (10^-9 m^2 / s)

            atom        D 
            Cx                NaN
            Hx                NaN
            Cu                NaN
            O                 NaN
            N                 NaN
            C                 NaN
            H                 NaN


                Average pressure tensor                                       r.m.s. fluctuations 

           7.0989E-02 -1.2536E-03  8.8291E-04                          0.0000E+00  0.0000E+00  0.0000E+00
          -1.2536E-03 -9.8667E-02 -6.4449E-03                          0.0000E+00  0.0000E+00  0.0000E+00
           8.8291E-04 -6.4449E-03 -2.2027E-01                          0.0000E+00  0.0000E+00  0.0000E+00

            trace/3.  -8.2650E-02


 gaussian moments of momenta. over  0.000000E+00 samples
    0.000000E+00    0.000000E+00    0.000000E+00    0.000000E+00    0.000000E+00


 sample of final configuration

      i       x(i)        y(i)        z(i)       vx(i)       vy(i)       vz(i)       fx(i)       fy(i)       fz(i)


      1  4.0108E+00  4.4876E-01  4.9554E+00  0.0000E+00  0.0000E+00  0.0000E+00  6.2871E+02 -1.6776E+03  3.4499E+02
    146  2.8436E+00  8.1559E-01 -1.1316E+01  0.0000E+00  0.0000E+00  0.0000E+00  0.0000E+00  0.0000E+00  0.0000E+00
    291  2.1642E+00 -3.8715E+00  4.1827E+00  0.0000E+00  0.0000E+00  0.0000E+00  0.0000E+00  0.0000E+00  0.0000E+00
    436  2.6710E+00 -1.2827E+00 -4.2468E-01  0.0000E+00  0.0000E+00  0.0000E+00  0.0000E+00  0.0000E+00  0.0000E+00
    581  7.7889E+00  3.4384E+00  1.1032E+01  0.0000E+00  0.0000E+00  0.0000E+00  0.0000E+00  0.0000E+00  0.0000E+00
    726  6.9308E+00 -1.6937E+01  9.3655E-01  0.0000E+00  0.0000E+00  0.0000E+00  0.0000E+00  0.0000E+00  0.0000E+00
    871  5.4242E+00 -1.7025E+00  1.4810E+01  0.0000E+00  0.0000E+00  0.0000E+00  0.0000E+00  0.0000E+00  0.0000E+00
   1016  1.0002E+01  1.6458E+01  7.2399E+00  0.0000E+00  0.0000E+00  0.0000E+00  0.0000E+00  0.0000E+00  0.0000E+00
   1161  1.3703E+01  3.7892E+00 -1.8753E+00  0.0000E+00  0.0000E+00  0.0000E+00  0.0000E+00  0.0000E+00  0.0000E+00
   1306  1.0593E+01 -1.5095E+01  1.2335E+01  0.0000E+00  0.0000E+00  0.0000E+00  0.0000E+00  0.0000E+00  0.0000E+00
   1451 -1.2932E+01  1.2942E+01  2.5891E+00  0.0000E+00  0.0000E+00  0.0000E+00  0.0000E+00  0.0000E+00  0.0000E+00
   1596 -9.7241E+00  1.3983E+01 -1.0863E+01  0.0000E+00  0.0000E+00  0.0000E+00  0.0000E+00  0.0000E+00  0.0000E+00
   1741 -1.2125E+01 -1.0591E+01  6.3414E+00  0.0000E+00  0.0000E+00  0.0000E+00  0.0000E+00  0.0000E+00  0.0000E+00
   1886 -1.0681E+01 -1.2762E+01 -8.9791E+00  0.0000E+00  0.0000E+00  0.0000E+00  0.0000E+00  0.0000E+00  0.0000E+00
   2031 -9.9328E+00  1.7642E+01  1.3141E+01  0.0000E+00  0.0000E+00  0.0000E+00  0.0000E+00  0.0000E+00  0.0000E+00
   2176 -9.8358E+00 -3.6904E+00  6.1518E+00  0.0000E+00  0.0000E+00  0.0000E+00  0.0000E+00  0.0000E+00  0.0000E+00
   2321 -1.0708E+01 -1.1541E+01  1.4698E+01  0.0000E+00  0.0000E+00  0.0000E+00  0.0000E+00  0.0000E+00  0.0000E+00
   2466 -4.5585E+00  8.1559E-01  9.9605E+00  0.0000E+00  0.0000E+00  0.0000E+00  0.0000E+00  0.0000E+00  0.0000E+00
   2611 -1.3551E+00  1.6364E+01 -6.4554E+00  0.0000E+00  0.0000E+00  0.0000E+00  0.0000E+00  0.0000E+00  0.0000E+00
   2756 -8.4833E-01 -1.2827E+00 -1.1063E+01  0.0000E+00  0.0000E+00  0.0000E+00  0.0000E+00  0.0000E+00  0.0000E+00

 time elapsed since job start =           0.045 seconds

