
                    DL_POLY Classic 1.10

                              Running on    1 nodes


 ************************************************************************************************************************
 ************************************************************************************************************************
 ************************************************************************************************************************
 ***************     # minimisation                                                                       ***************
 ************************************************************************************************************************
 ************************************************************************************************************************
 ************************************************************************************************************************


 SIMULATION CONTROL PARAMETERS


 structure optimisation requested
 convergence to minimum energy selected
 tolerance for structure optimisation      1.0000E+00         

 selected number of timesteps            1

 simulation timestep              0.0000E+00

 real space cut off               1.2500E+01

 border width of Verlet shell     1.0000E+00

 Ewald sum  precision             1.0000E-06

 Electrostatics : Ewald sum  

 Ewald convergence parameter      2.5396E-01
 Ewald kmax1 kmax2 kmax3         9    8    8

 user allocated job time (d)    ********

 job closure time        (s)    2000.000

 statistics file interval                1


SYSTEM SPECIFICATION

 energy units=kcal/ mol 


 number of molecular types               2

 molecular species type                  1


 name of species:             &guest Acetylene for Adsorption in MOFs:

 number of molecules                     1

 number of atoms/sites                   4


 atomic characteristics:

                      site     name          mass        charge    repeat    freeze

                         1     Cx          12.01070    -0.27800         1         0
                         2     Cx          12.01070    -0.27800         1         0
                         3     Hx           1.00790     0.27800         1         0
                         4     Hx           1.00790     0.27800         1         0

 number of rigid units                   1

 rigid body details:

                           unit   indices

                              1         1         2         3         4

 molecular species type                  2


 name of species:             Framework                               

 number of molecules                    36

 number of atoms/sites                  44


 atomic characteristics:

                      site     name          mass        charge    repeat    freeze

                         5     Zn          65.38000     0.82225         1         1
                         6     Zn          65.38000     0.82223         1         1
                         7     Zn          65.38000     0.82223         1         1
                         8     Zn          65.38000     0.82229         1         1
                         9     N           14.00670    -0.33147         1         1
                        10     N           14.00670    -0.33147         1         1
                        11     N           14.00670    -0.33144         1         1
                        12     N           14.00670    -0.33144         1         1
                        13     N           14.00670    -0.14746         1         1
                        14     N           14.00670    -0.14746         1         1
                        15     N           14.00670    -0.14748         1         1
                        16     N           14.00670    -0.14748         1         1
                        17     N           14.00670    -0.39498         1         1
                        18     N           14.00670    -0.39499         1         1
                        19     N           14.00670    -0.39502         1         1
                        20     N           14.00670    -0.39496         1         1
                        21     O           15.99940    -0.56331         1         1
                        22     O           15.99940    -0.56329         1         1
                        23     O           15.99940    -0.56331         1         1
                        24     O           15.99940    -0.56333         1         1
                        25     O           15.99940    -0.47679         1         1
                        26     O           15.99940    -0.47680         1         1
                        27     O           15.99940    -0.47679         1         1
                        28     O           15.99940    -0.47678         1         1
                        29     C           12.01070     0.22788         1         1
                        30     C           12.01070     0.22788         1         1
                        31     C           12.01070     0.22788         1         1
                        32     C           12.01070     0.22783         1         1
                        33     H            1.00794     0.06907         1         1
                        34     H            1.00794     0.06907         1         1
                        35     H            1.00794     0.06907         1         1
                        36     H            1.00794     0.06909         1         1
                        37     C           12.01070     0.20824         1         1
                        38     C           12.01070     0.20824         1         1
                        39     C           12.01070     0.20827         1         1
                        40     C           12.01070     0.20825         1         1
                        41     H            1.00794     0.08720         1         1
                        42     H            1.00794     0.08721         1         1
                        43     H            1.00794     0.08721         1         1
                        44     H            1.00794     0.08721         1         1
                        45     C           12.01070     0.49938         1         1
                        46     C           12.01070     0.49935         1         1
                        47     C           12.01070     0.49936         1         1
                        48     C           12.01070     0.49938         1         1


 number of specified pair potentials        28


                atom 1  atom 2      key                              parameters


                Zn      Zn        lj       1.24000E-01  2.46160E+00
                Zn      N         lj       9.24990E-02  2.86115E+00
                Zn      O         lj       8.62550E-02  2.78985E+00
                Zn      C         lj       1.14105E-01  2.94625E+00
                Zn      H         lj       7.38650E-02  2.51635E+00
                Zn      Cx        lj       1.19415E-01  3.13080E+00
                Zn      Hx        lj       0.00000E+00  0.00000E+00
                N       N         lj       6.90000E-02  3.26070E+00
                N       O         lj       6.43430E-02  3.18940E+00
                N       C         lj       8.51180E-02  3.34580E+00
                N       H         lj       5.51000E-02  2.91590E+00
                N       Cx        lj       8.90790E-02  3.53035E+00
                N       Hx        lj       0.00000E+00  0.00000E+00
                O       O         lj       6.00000E-02  3.11810E+00
                O       C         lj       7.93730E-02  3.27450E+00
                O       H         lj       5.13810E-02  2.84460E+00
                O       Cx        lj       8.30660E-02  3.45905E+00
                O       Hx        lj       0.00000E+00  0.00000E+00
                C       C         lj       1.05000E-01  3.43090E+00
                C       H         lj       6.79710E-02  3.00100E+00
                C       Cx        lj       1.09886E-01  3.61545E+00
                C       Hx        lj       0.00000E+00  0.00000E+00
                H       H         lj       4.40000E-02  2.57110E+00
                H       Cx        lj       7.11340E-02  3.18555E+00
                H       Hx        lj       0.00000E+00  0.00000E+00
                Cx      Cx        lj       1.15000E-01  3.80000E+00
                Cx      Hx        lj       0.00000E+00  0.00000E+00
                Hx      Hx        lj       0.00000E+00  0.00000E+00

 configuration file name: 

          calf-20                                                                         


 selected image convention               3


 simulation cell vectors


                        35.655198    0.000000    0.000000
                         0.000000   29.080468    0.000000
                       -12.425115    0.000000   25.594261


 system volume            26537.9179060    


             summary of rigid body set up

 group of type          1
             total mass           26.0372000000
             rot. inertia         14.4740365690       14.4740365690        0.0000000000

             site        a coord        b coord        c coord
                1    0.00000E+00   -0.00000E+00   -6.05500E-01
                2    0.00000E+00   -0.00000E+00    6.05500E-01
                3    0.00000E+00   -0.00000E+00   -1.67670E+00
                4    0.00000E+00   -0.00000E+00    1.67670E+00


 total degrees of freedom                         2.
 rotational degrees of freedom                    2.
 shell pseudo degrees of freedom                  0.


 sample of starting configuration

      i       x(i)        y(i)        z(i)       vx(i)       vy(i)       vz(i)


      1  3.0235E+00  4.1770E+00  3.8708E+00  0.0000E+00  0.0000E+00  0.0000E+00
     81  1.9583E+00  7.2178E+00  1.1289E+01  0.0000E+00  0.0000E+00  0.0000E+00
    161 -8.8023E-01 -1.1616E+01  2.2079E+00  0.0000E+00  0.0000E+00  0.0000E+00
    241  5.2673E+00  1.0431E+01 -3.3256E+00  0.0000E+00  0.0000E+00  0.0000E+00
    321  2.2521E+00 -1.4298E+00  1.2029E+01  0.0000E+00  0.0000E+00  0.0000E+00
    401  8.6725E+00  5.5941E-01  3.7264E+00  0.0000E+00  0.0000E+00  0.0000E+00
    481  9.9211E+00  6.6958E+00  1.1343E+01  0.0000E+00  0.0000E+00  0.0000E+00
    561  9.0086E+00 -1.1563E+01  1.7354E+00  0.0000E+00  0.0000E+00  0.0000E+00
    641  1.6287E+01  9.9911E+00 -2.7881E+00  0.0000E+00  0.0000E+00  0.0000E+00
    721  1.1866E+01 -2.8247E+00  1.0459E+01  0.0000E+00  0.0000E+00  0.0000E+00
    801 -1.9078E+01  8.6195E+00  3.1421E+00  0.0000E+00  0.0000E+00  0.0000E+00
    881 -7.2746E+00  2.9856E-01 -1.2102E+01  0.0000E+00  0.0000E+00  0.0000E+00
    961 -1.1728E+01 -1.2169E+01  2.7574E+00  0.0000E+00  0.0000E+00  0.0000E+00
   1041 -1.4566E+01 -1.1616E+01 -6.3235E+00  0.0000E+00  0.0000E+00  0.0000E+00
   1121 -8.4186E+00 -8.9558E+00 -1.1857E+01  0.0000E+00  0.0000E+00  0.0000E+00
   1201 -2.5200E+00  8.2637E+00  3.4979E+00  0.0000E+00  0.0000E+00  0.0000E+00
   1281 -5.0134E+00  5.5941E-01 -4.8050E+00  0.0000E+00  0.0000E+00  0.0000E+00
   1361 -3.7648E+00 -1.2691E+01  2.8114E+00  0.0000E+00  0.0000E+00  0.0000E+00
   1441 -4.6773E+00 -1.1563E+01 -6.7960E+00  0.0000E+00  0.0000E+00  0.0000E+00
   1521  2.6009E+00 -9.3959E+00 -1.1319E+01  0.0000E+00  0.0000E+00  0.0000E+00


long range correction for: vdw energy    -0.167713E+00
                         : vdw pressure  -0.866527E-03

 time elapsed since job start =           0.003 seconds

 ------------------------------------------------------------------------------------------------------------------------

     step     eng_tot    temp_tot     eng_cfg     eng_vdw     eng_cou     eng_bnd     eng_ang     eng_dih     eng_tet
 time          eng_pv    temp_rot     vir_cfg     vir_vdw     vir_cou     vir_bnd     vir_ang     vir_con     vir_tet
 cpu time      volume    temp_shl     eng_shl     vir_shl       alpha        beta       gamma     vir_pmf       press


 ------------------------------------------------------------------------------------------------------------------------
        1 -1.2764E+04  0.0000E+00 -1.2764E+04 -4.2131E+00 -1.2760E+04  0.0000E+00  0.0000E+00  0.0000E+00  0.0000E+00
   0.000f -1.2807E+04  0.0000E+00  1.3041E+02 -2.3988E+01  1.5440E+02  0.0000E+00  0.0000E+00  0.0000E+00  0.0000E+00
   0.014s  2.6538E+04  0.0000E+00  0.0000E+00  0.0000E+00  9.0000E+01  1.1589E+02  9.0000E+01  0.0000E+00 -1.1232E-01

  rolling -1.2764E+04  0.0000E+00 -1.2764E+04 -4.2131E+00 -1.2760E+04  0.0000E+00  0.0000E+00  0.0000E+00  0.0000E+00
 averages -1.2807E+04  0.0000E+00  1.3041E+02 -2.3988E+01  1.5440E+02  0.0000E+00  0.0000E+00  0.0000E+00  0.0000E+00
           2.6538E+04  0.0000E+00  0.0000E+00  0.0000E+00  9.0000E+01  1.1589E+02  9.0000E+01  0.0000E+00 -1.1232E-01
 ------------------------------------------------------------------------------------------------------------------------


 run terminating. elapsed cpu time =   1.40000E-02, job time = *******d, close time = 2000.00s



 run terminated after       1 steps. final averages calculated over       1 steps.


 ------------------------------------------------------------------------------------------------------------------------

     step     eng_tot    temp_tot     eng_cfg     eng_vdw     eng_cou     eng_bnd     eng_ang     eng_dih     eng_tet
 time          eng_pv    temp_rot     vir_cfg     vir_vdw     vir_cou     vir_bnd     vir_ang     vir_con     vir_tet
 cpu time      volume    temp_shl     eng_shl     vir_shl       alpha        beta       gamma     vir_pmf       press


 ------------------------------------------------------------------------------------------------------------------------
        1 -1.2764E+04  0.0000E+00 -1.2764E+04 -4.2131E+00 -1.2760E+04  0.0000E+00  0.0000E+00  0.0000E+00  0.0000E+00
   0.000f -1.2807E+04  0.0000E+00  1.3041E+02 -2.3988E+01  1.5440E+02  0.0000E+00  0.0000E+00  0.0000E+00  0.0000E+00
   0.016s  2.6538E+04  0.0000E+00  0.0000E+00  0.0000E+00  9.0000E+01  1.1589E+02  9.0000E+01  0.0000E+00 -1.1232E-01

  r.m.s.   0.0000E+00  0.0000E+00  0.0000E+00  0.0000E+00  0.0000E+00  0.0000E+00  0.0000E+00  0.0000E+00  0.0000E+00
 fluctn.   0.0000E+00  0.0000E+00  0.0000E+00  0.0000E+00  0.0000E+00  0.0000E+00  0.0000E+00  0.0000E+00  0.0000E+00
           0.0000E+00  0.0000E+00  0.0000E+00  0.0000E+00  0.0000E+00  0.0000E+00  0.0000E+00  0.0000E+00  0.0000E+00
 ------------------------------------------------------------------------------------------------------------------------


            Approximate 3D Diffusion  coefficients (10^-9 m^2 / s)

            atom        D 
            Cx                NaN
            Hx                NaN
            Zn                NaN
            N                 NaN
            O                 NaN
            C                 NaN
            H                 NaN


                Average pressure tensor                                       r.m.s. fluctuations 

          -1.7983E-01  8.4266E-04 -1.4147E-01                          0.0000E+00  0.0000E+00  0.0000E+00
           8.4266E-04 -9.1970E-02  4.4103E-03                          0.0000E+00  0.0000E+00  0.0000E+00
          -1.4147E-01  4.4103E-03 -6.5160E-02                          0.0000E+00  0.0000E+00  0.0000E+00

            trace/3.  -1.1232E-01


 gaussian moments of momenta. over  0.000000E+00 samples
    0.000000E+00    0.000000E+00    0.000000E+00    0.000000E+00    0.000000E+00


 sample of final configuration

      i       x(i)        y(i)        z(i)       vx(i)       vy(i)       vz(i)       fx(i)       fy(i)       fz(i)


      1  3.0235E+00  4.1770E+00  3.8708E+00  0.0000E+00  0.0000E+00  0.0000E+00 -8.1287E+02 -1.3307E+02  5.2390E+03
     81  1.9583E+00  7.2178E+00  1.1289E+01  0.0000E+00  0.0000E+00  0.0000E+00  0.0000E+00  0.0000E+00  0.0000E+00
    161 -8.8023E-01 -1.1616E+01  2.2079E+00  0.0000E+00  0.0000E+00  0.0000E+00  0.0000E+00  0.0000E+00  0.0000E+00
    241  5.2673E+00  1.0431E+01 -3.3256E+00  0.0000E+00  0.0000E+00  0.0000E+00  0.0000E+00  0.0000E+00  0.0000E+00
    321  2.2521E+00 -1.4298E+00  1.2029E+01  0.0000E+00  0.0000E+00  0.0000E+00  0.0000E+00  0.0000E+00  0.0000E+00
    401  8.6725E+00  5.5941E-01  3.7264E+00  0.0000E+00  0.0000E+00  0.0000E+00  0.0000E+00  0.0000E+00  0.0000E+00
    481  9.9211E+00  6.6958E+00  1.1343E+01  0.0000E+00  0.0000E+00  0.0000E+00  0.0000E+00  0.0000E+00  0.0000E+00
    561  9.0086E+00 -1.1563E+01  1.7354E+00  0.0000E+00  0.0000E+00  0.0000E+00  0.0000E+00  0.0000E+00  0.0000E+00
    641  1.6287E+01  9.9911E+00 -2.7881E+00  0.0000E+00  0.0000E+00  0.0000E+00  0.0000E+00  0.0000E+00  0.0000E+00
    721  1.1866E+01 -2.8247E+00  1.0459E+01  0.0000E+00  0.0000E+00  0.0000E+00  0.0000E+00  0.0000E+00  0.0000E+00
    801 -1.9078E+01  8.6195E+00  3.1421E+00  0.0000E+00  0.0000E+00  0.0000E+00  0.0000E+00  0.0000E+00  0.0000E+00
    881 -7.2746E+00  2.9856E-01 -1.2102E+01  0.0000E+00  0.0000E+00  0.0000E+00  0.0000E+00  0.0000E+00  0.0000E+00
    961 -1.1728E+01 -1.2169E+01  2.7574E+00  0.0000E+00  0.0000E+00  0.0000E+00  0.0000E+00  0.0000E+00  0.0000E+00
   1041 -1.4566E+01 -1.1616E+01 -6.3235E+00  0.0000E+00  0.0000E+00  0.0000E+00  0.0000E+00  0.0000E+00  0.0000E+00
   1121 -8.4186E+00 -8.9558E+00 -1.1857E+01  0.0000E+00  0.0000E+00  0.0000E+00  0.0000E+00  0.0000E+00  0.0000E+00
   1201 -2.5200E+00  8.2637E+00  3.4979E+00  0.0000E+00  0.0000E+00  0.0000E+00  0.0000E+00  0.0000E+00  0.0000E+00
   1281 -5.0134E+00  5.5941E-01 -4.8050E+00  0.0000E+00  0.0000E+00  0.0000E+00  0.0000E+00  0.0000E+00  0.0000E+00
   1361 -3.7648E+00 -1.2691E+01  2.8114E+00  0.0000E+00  0.0000E+00  0.0000E+00  0.0000E+00  0.0000E+00  0.0000E+00
   1441 -4.6773E+00 -1.1563E+01 -6.7960E+00  0.0000E+00  0.0000E+00  0.0000E+00  0.0000E+00  0.0000E+00  0.0000E+00
   1521  2.6009E+00 -9.3959E+00 -1.1319E+01  0.0000E+00  0.0000E+00  0.0000E+00  0.0000E+00  0.0000E+00  0.0000E+00

 time elapsed since job start =           0.017 seconds

