
                    DL_POLY Classic 1.10

                              Running on    1 nodes


 ************************************************************************************************************************
 ************************************************************************************************************************
 ************************************************************************************************************************
 ***************     # minimisation                                                                       ***************
 ************************************************************************************************************************
 ************************************************************************************************************************
 ************************************************************************************************************************


 SIMULATION CONTROL PARAMETERS


 structure optimisation requested
 convergence to minimum energy selected
 tolerance for structure optimisation      1.0000E+00         

 selected number of timesteps            1

 simulation timestep              0.0000E+00

 real space cut off               1.2000E+01

 border width of Verlet shell     1.0000E+00

 Ewald sum  precision             1.0000E-06

 Electrostatics : Ewald sum  

 Ewald convergence parameter      2.6506E-01
 Ewald kmax1 kmax2 kmax3        10    8   13

 user allocated job time (d)    ********

 job closure time        (s)    2000.000

 statistics file interval                1


SYSTEM SPECIFICATION

 energy units=kcal/ mol 


 number of molecular types               2

 molecular species type                  1


 name of species:             &guest Xe: Self-consistent Xenon: https:

 number of molecules                     1

 number of atoms/sites                   2


 atomic characteristics:

                      site     name          mass        charge    repeat    freeze

                         1     Xex        131.29300     0.00000         1         0
                         2     DUM          0.00000     0.00000         1         0

 number of rigid units                   1

 rigid body details:

                           unit   indices

                              1         1

 molecular species type                  2


 name of species:             Framework                               

 number of molecules                    30

 number of atoms/sites                 120


 atomic characteristics:

                      site     name          mass        charge    repeat    freeze

                         3     C           12.01070     0.00000         1         1
                         4     C           12.01070     0.00000         1         1
                         5     C           12.01070     0.00000         1         1
                         6     C           12.01070     0.00000         1         1
                         7     C           12.01070     0.00000         1         1
                         8     C           12.01070     0.00000         1         1
                         9     C           12.01070     0.00000         1         1
                        10     C           12.01070     0.00000         1         1
                        11     C           12.01070     0.00000         1         1
                        12     C           12.01070     0.00000         1         1
                        13     C           12.01070     0.00000         1         1
                        14     C           12.01070     0.00000         1         1
                        15     H            1.00794     0.00000         1         1
                        16     H            1.00794     0.00000         1         1
                        17     H            1.00794     0.00000         1         1
                        18     H            1.00794     0.00000         1         1
                        19     C           12.01070     0.00000         1         1
                        20     C           12.01070     0.00000         1         1
                        21     C           12.01070     0.00000         1         1
                        22     C           12.01070     0.00000         1         1
                        23     H            1.00794     0.00000         1         1
                        24     H            1.00794     0.00000         1         1
                        25     H            1.00794     0.00000         1         1
                        26     H            1.00794     0.00000         1         1
                        27     C           12.01070     0.00000         1         1
                        28     C           12.01070     0.00000         1         1
                        29     C           12.01070     0.00000         1         1
                        30     C           12.01070     0.00000         1         1
                        31     C           12.01070     0.00000         1         1
                        32     C           12.01070     0.00000         1         1
                        33     C           12.01070     0.00000         1         1
                        34     C           12.01070     0.00000         1         1
                        35     H            1.00794     0.00000         1         1
                        36     H            1.00794     0.00000         1         1
                        37     H            1.00794     0.00000         1         1
                        38     H            1.00794     0.00000         1         1
                        39     C           12.01070     0.00000         1         1
                        40     C           12.01070     0.00000         1         1
                        41     C           12.01070     0.00000         1         1
                        42     C           12.01070     0.00000         1         1
                        43     H            1.00794     0.00000         1         1
                        44     H            1.00794     0.00000         1         1
                        45     H            1.00794     0.00000         1         1
                        46     H            1.00794     0.00000         1         1
                        47     C           12.01070     0.00000         1         1
                        48     C           12.01070     0.00000         1         1
                        49     C           12.01070     0.00000         1         1
                        50     C           12.01070     0.00000         1         1
                        51     C           12.01070     0.00000         1         1
                        52     C           12.01070     0.00000         1         1
                        53     C           12.01070     0.00000         1         1
                        54     C           12.01070     0.00000         1         1
                        55     H            1.00794     0.00000         1         1
                        56     H            1.00794     0.00000         1         1
                        57     H            1.00794     0.00000         1         1
                        58     H            1.00794     0.00000         1         1
                        59     C           12.01070     0.00000         1         1
                        60     C           12.01070     0.00000         1         1
                        61     C           12.01070     0.00000         1         1
                        62     C           12.01070     0.00000         1         1
                        63     H            1.00794     0.00000         1         1
                        64     H            1.00794     0.00000         1         1
                        65     H            1.00794     0.00000         1         1
                        66     H            1.00794     0.00000         1         1
                        67     C           12.01070     0.00000         1         1
                        68     C           12.01070     0.00000         1         1
                        69     C           12.01070     0.00000         1         1
                        70     C           12.01070     0.00000         1         1
                        71     C           12.01070     0.00000         1         1
                        72     C           12.01070     0.00000         1         1
                        73     C           12.01070     0.00000         1         1
                        74     C           12.01070     0.00000         1         1
                        75     H            1.00794     0.00000         1         1
                        76     H            1.00794     0.00000         1         1
                        77     H            1.00794     0.00000         1         1
                        78     H            1.00794     0.00000         1         1
                        79     C           12.01070     0.00000         1         1
                        80     C           12.01070     0.00000         1         1
                        81     C           12.01070     0.00000         1         1
                        82     C           12.01070     0.00000         1         1
                        83     H            1.00794     0.00000         1         1
                        84     H            1.00794     0.00000         1         1
                        85     H            1.00794     0.00000         1         1
                        86     H            1.00794     0.00000         1         1
                        87     C           12.01070     0.00000         1         1
                        88     C           12.01070     0.00000         1         1
                        89     C           12.01070     0.00000         1         1
                        90     C           12.01070     0.00000         1         1
                        91     O           15.99940     0.00000         1         1
                        92     O           15.99940     0.00000         1         1
                        93     O           15.99940     0.00000         1         1
                        94     O           15.99940     0.00000         1         1
                        95     O           15.99940     0.00000         1         1
                        96     O           15.99940     0.00000         1         1
                        97     O           15.99940     0.00000         1         1
                        98     O           15.99940     0.00000         1         1
                        99     O           15.99940     0.00000         1         1
                       100     O           15.99940     0.00000         1         1
                       101     O           15.99940     0.00000         1         1
                       102     O           15.99940     0.00000         1         1
                       103     O           15.99940     0.00000         1         1
                       104     O           15.99940     0.00000         1         1
                       105     O           15.99940     0.00000         1         1
                       106     O           15.99940     0.00000         1         1
                       107     O           15.99940     0.00000         1         1
                       108     O           15.99940     0.00000         1         1
                       109     O           15.99940     0.00000         1         1
                       110     O           15.99940     0.00000         1         1
                       111     O           15.99940     0.00000         1         1
                       112     O           15.99940     0.00000         1         1
                       113     O           15.99940     0.00000         1         1
                       114     O           15.99940     0.00000         1         1
                       115     S           32.06500     0.00000         1         1
                       116     S           32.06500     0.00000         1         1
                       117     S           32.06500     0.00000         1         1
                       118     S           32.06500     0.00000         1         1
                       119     Ca          40.07800     0.00000         1         1
                       120     Ca          40.07800     0.00000         1         1
                       121     Ca          40.07800     0.00000         1         1
                       122     Ca          40.07800     0.00000         1         1


 number of specified pair potentials        21


                atom 1  atom 2      key                              parameters


                C       C         lj       1.05000E-01  3.43090E+00
                C       H         lj       6.79710E-02  3.00100E+00
                C       O         lj       7.93730E-02  3.27450E+00
                C       S         lj       1.69617E-01  3.51285E+00
                C       Ca        lj       1.58082E-01  3.22955E+00
                C       Xex       lj       2.18973E-01  3.70045E+00
                H       H         lj       4.40000E-02  2.57110E+00
                H       O         lj       5.13810E-02  2.84460E+00
                H       S         lj       1.09800E-01  3.08295E+00
                H       Ca        lj       1.02333E-01  2.79965E+00
                H       Xex       lj       1.41750E-01  3.27055E+00
                O       O         lj       6.00000E-02  3.11810E+00
                O       S         lj       1.28219E-01  3.35645E+00
                O       Ca        lj       1.19499E-01  3.07315E+00
                O       Xex       lj       1.65528E-01  3.54405E+00
                S       S         lj       2.74000E-01  3.59480E+00
                S       Ca        lj       2.55366E-01  3.31150E+00
                S       Xex       lj       3.53730E-01  3.78240E+00
                Ca      Ca        lj       2.38000E-01  3.02820E+00
                Ca      Xex       lj       3.29674E-01  3.49910E+00
                Xex     Xex       lj       4.56660E-01  3.97000E+00

  *** warning - undefined atom-atom interactions set to zero ***

 configuration file name: 

          UQEFED_P1                                                                       


 selected image convention               3


 simulation cell vectors


                        34.858051    0.000000    0.000000
                         0.000000   27.833605    0.000000
                        -8.670285    0.000000   45.035316


 system volume            43694.3996474    


             summary of rigid body set up

 group of type          1
             total mass          131.2930000000
             rot. inertia          0.0000000000        0.0000000000        0.0000000000

             site        a coord        b coord        c coord
                1    0.00000E+00   -0.00000E+00    0.00000E+00


 total degrees of freedom                         3.
 rotational degrees of freedom                    0.
 shell pseudo degrees of freedom                  0.


 sample of starting configuration

      i       x(i)        y(i)        z(i)       vx(i)       vy(i)       vz(i)


      1  3.6279E+00  2.7834E+00  1.1332E+01  0.0000E+00  0.0000E+00  0.0000E+00
    182  1.1647E+01  6.4735E-01 -2.1373E+01  0.0000E+00  0.0000E+00  0.0000E+00
    363  8.9305E+00  7.0068E+00 -1.6618E+01  0.0000E+00  0.0000E+00  0.0000E+00
    544  2.4897E-01  1.1334E+01  2.1050E+01  0.0000E+00  0.0000E+00  0.0000E+00
    725  2.6888E+00 -7.0068E+00  1.6618E+01  0.0000E+00  0.0000E+00  0.0000E+00
    906  1.1370E+01 -5.7677E+00 -2.1050E+01  0.0000E+00  0.0000E+00  0.0000E+00
   1087  7.6844E+00 -4.3915E+00 -1.5782E+01  0.0000E+00  0.0000E+00  0.0000E+00
   1268  1.1118E+01  3.9602E+00  2.0491E+01  0.0000E+00  0.0000E+00  0.0000E+00
   1449 -1.9304E+01  9.9583E+00  1.5782E+01  0.0000E+00  0.0000E+00  0.0000E+00
   1630 -1.1118E+01  7.1732E+00 -2.0491E+01  0.0000E+00  0.0000E+00  0.0000E+00
   1811  1.8280E+01  1.3243E+01 -1.5760E+01  0.0000E+00  0.0000E+00  0.0000E+00
   1992  1.0643E+01 -8.4030E+00  2.0957E+01  0.0000E+00  0.0000E+00  0.0000E+00
   2173 -1.8280E+01 -2.1093E+00  1.5760E+01  0.0000E+00  0.0000E+00  0.0000E+00
   2354 -1.0644E+01 -2.7304E+00 -2.0957E+01  0.0000E+00  0.0000E+00  0.0000E+00
   2535 -4.8490E+00  2.9431E+00 -1.6204E+01  0.0000E+00  0.0000E+00  0.0000E+00
   2716 -1.2952E+01  7.6593E+00  2.0351E+01  0.0000E+00  0.0000E+00  0.0000E+00
   2897 -6.7704E+00  1.3757E+01  1.6204E+01  0.0000E+00  0.0000E+00  0.0000E+00
   3078  1.3328E+00 -1.3226E+01 -2.0351E+01  0.0000E+00  0.0000E+00  0.0000E+00
   3259 -6.1483E+00 -9.3064E+00 -1.5089E+01  0.0000E+00  0.0000E+00  0.0000E+00
   3440 -1.2541E+01 -3.1185E+00  2.2319E+01  0.0000E+00  0.0000E+00  0.0000E+00


long range correction for: vdw energy    -0.342776E+00
                         : vdw pressure  -0.107554E-02

 time elapsed since job start =           0.007 seconds

 ------------------------------------------------------------------------------------------------------------------------

     step     eng_tot    temp_tot     eng_cfg     eng_vdw     eng_cou     eng_bnd     eng_ang     eng_dih     eng_tet
 time          eng_pv    temp_rot     vir_cfg     vir_vdw     vir_cou     vir_bnd     vir_ang     vir_con     vir_tet
 cpu time      volume    temp_shl     eng_shl     vir_shl       alpha        beta       gamma     vir_pmf       press


 ------------------------------------------------------------------------------------------------------------------------
        1 -1.1041E+01  0.0000E+00 -1.1041E+01 -1.1041E+01  0.0000E+00  0.0000E+00  0.0000E+00  0.0000E+00  0.0000E+00
   0.000f -2.5961E+01  0.0000E+00  4.4758E+01  4.4758E+01  0.0000E+00  0.0000E+00  0.0000E+00  0.0000E+00  0.0000E+00
   0.131s  4.3694E+04  0.0000E+00  0.0000E+00  0.0000E+00  9.0000E+01  1.0090E+02  9.0000E+01  0.0000E+00 -2.3413E-02

  rolling -1.1041E+01  0.0000E+00 -1.1041E+01 -1.1041E+01  0.0000E+00  0.0000E+00  0.0000E+00  0.0000E+00  0.0000E+00
 averages -2.5961E+01  0.0000E+00  4.4758E+01  4.4758E+01  0.0000E+00  0.0000E+00  0.0000E+00  0.0000E+00  0.0000E+00
           4.3694E+04  0.0000E+00  0.0000E+00  0.0000E+00  9.0000E+01  1.0090E+02  9.0000E+01  0.0000E+00 -2.3413E-02
 ------------------------------------------------------------------------------------------------------------------------


 run terminating. elapsed cpu time =   1.31000E-01, job time = *******d, close time = 2000.00s



 run terminated after       1 steps. final averages calculated over       1 steps.


 ------------------------------------------------------------------------------------------------------------------------

     step     eng_tot    temp_tot     eng_cfg     eng_vdw     eng_cou     eng_bnd     eng_ang     eng_dih     eng_tet
 time          eng_pv    temp_rot     vir_cfg     vir_vdw     vir_cou     vir_bnd     vir_ang     vir_con     vir_tet
 cpu time      volume    temp_shl     eng_shl     vir_shl       alpha        beta       gamma     vir_pmf       press


 ------------------------------------------------------------------------------------------------------------------------
        1 -1.1041E+01  0.0000E+00 -1.1041E+01 -1.1041E+01  0.0000E+00  0.0000E+00  0.0000E+00  0.0000E+00  0.0000E+00
   0.000f -2.5961E+01  0.0000E+00  4.4758E+01  4.4758E+01  0.0000E+00  0.0000E+00  0.0000E+00  0.0000E+00  0.0000E+00
   0.183s  4.3694E+04  0.0000E+00  0.0000E+00  0.0000E+00  9.0000E+01  1.0090E+02  9.0000E+01  0.0000E+00 -2.3413E-02

  r.m.s.   0.0000E+00  0.0000E+00  0.0000E+00  0.0000E+00  0.0000E+00  0.0000E+00  0.0000E+00  0.0000E+00  0.0000E+00
 fluctn.   0.0000E+00  0.0000E+00  0.0000E+00  0.0000E+00  0.0000E+00  0.0000E+00  0.0000E+00  0.0000E+00  0.0000E+00
           0.0000E+00  0.0000E+00  0.0000E+00  0.0000E+00  0.0000E+00  0.0000E+00  0.0000E+00  0.0000E+00  0.0000E+00
 ------------------------------------------------------------------------------------------------------------------------


            Approximate 3D Diffusion  coefficients (10^-9 m^2 / s)

            atom        D 
            Xex               NaN
            DUM               NaN
            C                 NaN
            H                 NaN
            O                 NaN
            S                 NaN
            Ca                NaN


                Average pressure tensor                                       r.m.s. fluctuations 

          -2.6363E-02 -3.6724E-03 -1.3951E-03                          0.0000E+00  0.0000E+00  0.0000E+00
          -3.6724E-03 -1.8247E-02 -1.7315E-03                          0.0000E+00  0.0000E+00  0.0000E+00
          -1.3951E-03 -1.7315E-03 -2.5627E-02                          0.0000E+00  0.0000E+00  0.0000E+00

            trace/3.  -2.3413E-02


 gaussian moments of momenta. over  0.000000E+00 samples
    0.000000E+00    0.000000E+00    0.000000E+00    0.000000E+00    0.000000E+00


 sample of final configuration

      i       x(i)        y(i)        z(i)       vx(i)       vy(i)       vz(i)       fx(i)       fy(i)       fz(i)


      1  3.6279E+00  2.7834E+00  1.1332E+01  0.0000E+00  0.0000E+00  0.0000E+00 -9.0968E+00  2.7967E+01 -2.4459E+01
    182  1.1647E+01  6.4735E-01 -2.1373E+01  0.0000E+00  0.0000E+00  0.0000E+00  0.0000E+00  0.0000E+00  0.0000E+00
    363  8.9305E+00  7.0068E+00 -1.6618E+01  0.0000E+00  0.0000E+00  0.0000E+00  0.0000E+00  0.0000E+00  0.0000E+00
    544  2.4897E-01  1.1334E+01  2.1050E+01  0.0000E+00  0.0000E+00  0.0000E+00  0.0000E+00  0.0000E+00  0.0000E+00
    725  2.6888E+00 -7.0068E+00  1.6618E+01  0.0000E+00  0.0000E+00  0.0000E+00  0.0000E+00  0.0000E+00  0.0000E+00
    906  1.1370E+01 -5.7677E+00 -2.1050E+01  0.0000E+00  0.0000E+00  0.0000E+00  0.0000E+00  0.0000E+00  0.0000E+00
   1087  7.6844E+00 -4.3915E+00 -1.5782E+01  0.0000E+00  0.0000E+00  0.0000E+00  0.0000E+00  0.0000E+00  0.0000E+00
   1268  1.1118E+01  3.9602E+00  2.0491E+01  0.0000E+00  0.0000E+00  0.0000E+00  0.0000E+00  0.0000E+00  0.0000E+00
   1449 -1.9304E+01  9.9583E+00  1.5782E+01  0.0000E+00  0.0000E+00  0.0000E+00  0.0000E+00  0.0000E+00  0.0000E+00
   1630 -1.1118E+01  7.1732E+00 -2.0491E+01  0.0000E+00  0.0000E+00  0.0000E+00  0.0000E+00  0.0000E+00  0.0000E+00
   1811  1.8280E+01  1.3243E+01 -1.5760E+01  0.0000E+00  0.0000E+00  0.0000E+00  0.0000E+00  0.0000E+00  0.0000E+00
   1992  1.0643E+01 -8.4030E+00  2.0957E+01  0.0000E+00  0.0000E+00  0.0000E+00  0.0000E+00  0.0000E+00  0.0000E+00
   2173 -1.8280E+01 -2.1093E+00  1.5760E+01  0.0000E+00  0.0000E+00  0.0000E+00  0.0000E+00  0.0000E+00  0.0000E+00
   2354 -1.0644E+01 -2.7304E+00 -2.0957E+01  0.0000E+00  0.0000E+00  0.0000E+00  0.0000E+00  0.0000E+00  0.0000E+00
   2535 -4.8490E+00  2.9431E+00 -1.6204E+01  0.0000E+00  0.0000E+00  0.0000E+00  0.0000E+00  0.0000E+00  0.0000E+00
   2716 -1.2952E+01  7.6593E+00  2.0351E+01  0.0000E+00  0.0000E+00  0.0000E+00  0.0000E+00  0.0000E+00  0.0000E+00
   2897 -6.7704E+00  1.3757E+01  1.6204E+01  0.0000E+00  0.0000E+00  0.0000E+00  0.0000E+00  0.0000E+00  0.0000E+00
   3078  1.3328E+00 -1.3226E+01 -2.0351E+01  0.0000E+00  0.0000E+00  0.0000E+00  0.0000E+00  0.0000E+00  0.0000E+00
   3259 -6.1483E+00 -9.3064E+00 -1.5089E+01  0.0000E+00  0.0000E+00  0.0000E+00  0.0000E+00  0.0000E+00  0.0000E+00
   3440 -1.2541E+01 -3.1185E+00  2.2319E+01  0.0000E+00  0.0000E+00  0.0000E+00  0.0000E+00  0.0000E+00  0.0000E+00

 time elapsed since job start =           0.183 seconds

