
                    DL_POLY Classic 1.10

                              Running on    1 nodes


 ************************************************************************************************************************
 ************************************************************************************************************************
 ************************************************************************************************************************
 ***************     # minimisation                                                                       ***************
 ************************************************************************************************************************
 ************************************************************************************************************************
 ************************************************************************************************************************


 SIMULATION CONTROL PARAMETERS


 structure optimisation requested
 convergence to minimum energy selected
 tolerance for structure optimisation      1.0000E+00         

 selected number of timesteps            1

 simulation timestep              0.0000E+00

 real space cut off               1.2500E+01

 border width of Verlet shell     1.0000E+00

 Ewald sum  precision             1.0000E-06

 Electrostatics : Ewald sum  

 Ewald convergence parameter      2.5396E-01
 Ewald kmax1 kmax2 kmax3         9    8    8

 user allocated job time (d)    ********

 job closure time        (s)    2000.000

 statistics file interval                1


SYSTEM SPECIFICATION

 energy units=kcal/ mol 


 number of molecular types               2

 molecular species type                  1


 name of species:             &guest methane                          

 number of molecules                     1

 number of atoms/sites                   2


 atomic characteristics:

                      site     name          mass        charge    repeat    freeze

                         1     CH4         16.04246     0.00000         1         0
                         2     DUM          0.00000     0.00000         1         0

 number of rigid units                   1

 rigid body details:

                           unit   indices

                              1         1

 molecular species type                  2


 name of species:             Framework                               

 number of molecules                    36

 number of atoms/sites                  44


 atomic characteristics:

                      site     name          mass        charge    repeat    freeze

                         3     Zn          65.38000     0.83350         1         1
                         4     Zn          65.38000     0.83340         1         1
                         5     Zn          65.38000     0.83339         1         1
                         6     Zn          65.38000     0.83341         1         1
                         7     O           15.99940    -0.56818         1         1
                         8     O           15.99940    -0.56811         1         1
                         9     O           15.99940    -0.56809         1         1
                        10     O           15.99940    -0.56811         1         1
                        11     N           14.00670    -0.33473         1         1
                        12     N           14.00670    -0.33475         1         1
                        13     N           14.00670    -0.33478         1         1
                        14     N           14.00670    -0.33478         1         1
                        15     C           12.01070     0.49914         1         1
                        16     C           12.01070     0.49912         1         1
                        17     C           12.01070     0.49910         1         1
                        18     C           12.01070     0.49913         1         1
                        19     O           15.99940    -0.47780         1         1
                        20     O           15.99940    -0.47783         1         1
                        21     O           15.99940    -0.47786         1         1
                        22     O           15.99940    -0.47784         1         1
                        23     N           14.00670    -0.15990         1         1
                        24     N           14.00670    -0.15989         1         1
                        25     N           14.00670    -0.15981         1         1
                        26     N           14.00670    -0.15985         1         1
                        27     C           12.01070     0.24396         1         1
                        28     C           12.01070     0.24398         1         1
                        29     C           12.01070     0.24387         1         1
                        30     C           12.01070     0.24393         1         1
                        31     N           14.00670    -0.42084         1         1
                        32     N           14.00670    -0.42095         1         1
                        33     N           14.00670    -0.42084         1         1
                        34     N           14.00670    -0.42088         1         1
                        35     C           12.01070     0.23614         1         1
                        36     C           12.01070     0.23627         1         1
                        37     C           12.01070     0.23623         1         1
                        38     C           12.01070     0.23626         1         1
                        39     H            1.00794     0.08057         1         1
                        40     H            1.00794     0.08057         1         1
                        41     H            1.00794     0.08060         1         1
                        42     H            1.00794     0.08058         1         1
                        43     H            1.00794     0.06821         1         1
                        44     H            1.00794     0.06816         1         1
                        45     H            1.00794     0.06817         1         1
                        46     H            1.00794     0.06817         1         1

  *** warning - total system charge:    0.000144 ***


 number of specified pair potentials        21


                atom 1  atom 2      key                              parameters


                C       C         lj       1.04328E-01  3.43100E+00
                C       H         lj       6.75360E-02  3.00100E+00
                C       N         lj       8.45730E-02  3.34600E+00
                C       O         lj       7.88650E-02  3.27450E+00
                C       Zn        lj       1.13375E-01  2.94650E+00
                C       CH4       lj       1.81275E-01  3.57550E+00
                H       H         lj       4.37180E-02  2.57100E+00
                H       N         lj       5.47470E-02  2.91600E+00
                H       O         lj       5.10520E-02  2.84450E+00
                H       Zn        lj       7.33920E-02  2.51650E+00
                H       CH4       lj       1.17346E-01  3.14550E+00
                N       N         lj       6.85590E-02  3.26100E+00
                N       O         lj       6.39310E-02  3.18950E+00
                N       Zn        lj       9.19070E-02  2.86150E+00
                N       CH4       lj       1.46949E-01  3.49050E+00
                O       O         lj       5.96160E-02  3.11800E+00
                O       Zn        lj       8.57040E-02  2.79000E+00
                O       CH4       lj       1.37031E-01  3.41900E+00
                Zn      Zn        lj       1.23207E-01  2.46200E+00
                Zn      CH4       lj       1.96994E-01  3.09100E+00
                CH4     CH4       lj       3.14972E-01  3.72000E+00

  *** warning - undefined atom-atom interactions set to zero ***

 configuration file name: 

          framework                                                                       


 selected image convention               3


 simulation cell vectors


                        35.746894    0.000000    0.000000
                         0.000000   29.530636    0.000000
                       -12.726416    0.000000   25.374344


 system volume            26785.8811870    


             summary of rigid body set up

 group of type          1
             total mass           16.0424600000
             rot. inertia          0.0000000000        0.0000000000        0.0000000000

             site        a coord        b coord        c coord
                1    0.00000E+00   -0.00000E+00    0.00000E+00


 total degrees of freedom                         3.
 rotational degrees of freedom                    0.
 shell pseudo degrees of freedom                  0.


 sample of starting configuration

      i       x(i)        y(i)        z(i)       vx(i)       vy(i)       vz(i)


      1  5.1853E+00  4.0766E+00  3.5242E-01  0.0000E+00  0.0000E+00  0.0000E+00
     81  1.4107E+01  3.0315E+00 -1.0583E+01  0.0000E+00  0.0000E+00  0.0000E+00
    161 -1.3879E+00  1.2295E+01  5.7648E+00  0.0000E+00  0.0000E+00  0.0000E+00
    241  5.7432E+00 -1.4511E+01 -5.7264E+00  0.0000E+00  0.0000E+00  0.0000E+00
    321  1.4480E+01 -5.9624E+00 -1.1512E+01  0.0000E+00  0.0000E+00  0.0000E+00
    401  1.3918E+01  5.4983E+00  4.7568E+00  0.0000E+00  0.0000E+00  0.0000E+00
    481  1.6975E+01  1.9168E+00 -1.1217E+01  0.0000E+00  0.0000E+00  0.0000E+00
    561  6.5559E+00  1.1949E+01  6.5971E+00  0.0000E+00  0.0000E+00  0.0000E+00
    641  1.1506E+01  1.3345E+01 -3.4249E+00  0.0000E+00  0.0000E+00  0.0000E+00
    721  7.1583E+00 -4.6504E+00  1.1982E+01  0.0000E+00  0.0000E+00  0.0000E+00
    801 -1.4254E+01  5.6146E+00  3.2671E+00  0.0000E+00  0.0000E+00  0.0000E+00
    881 -4.7361E+00  3.0908E+00 -1.0096E+01  0.0000E+00  0.0000E+00  0.0000E+00
    961 -1.2251E+01  1.2875E+01  6.3332E+00  0.0000E+00  0.0000E+00  0.0000E+00
   1041 -1.5019E+01  1.2295E+01 -2.6933E+00  0.0000E+00  0.0000E+00  0.0000E+00
   1121 -2.0614E+01 -4.6670E+00  1.1190E+01  0.0000E+00  0.0000E+00  0.0000E+00
   1201 -2.9405E+00  3.8811E+00  5.4045E+00  0.0000E+00  0.0000E+00  0.0000E+00
   1281  2.8687E-01  5.4983E+00 -3.7013E+00  0.0000E+00  0.0000E+00  0.0000E+00
   1361 -9.3824E+00  1.1760E+01  5.6991E+00  0.0000E+00  0.0000E+00  0.0000E+00
   1441 -7.0754E+00  1.1949E+01 -1.8610E+00  0.0000E+00  0.0000E+00  0.0000E+00
   1521 -2.1249E+00 -6.3424E+00 -1.1883E+01  0.0000E+00  0.0000E+00  0.0000E+00


long range correction for: vdw energy    -0.127883E+00
                         : vdw pressure  -0.654627E-03

 time elapsed since job start =           0.002 seconds

 ------------------------------------------------------------------------------------------------------------------------

     step     eng_tot    temp_tot     eng_cfg     eng_vdw     eng_cou     eng_bnd     eng_ang     eng_dih     eng_tet
 time          eng_pv    temp_rot     vir_cfg     vir_vdw     vir_cou     vir_bnd     vir_ang     vir_con     vir_tet
 cpu time      volume    temp_shl     eng_shl     vir_shl       alpha        beta       gamma     vir_pmf       press


 ------------------------------------------------------------------------------------------------------------------------
        1 -1.3242E+04  0.0000E+00 -1.3242E+04 -5.9406E+00 -1.3236E+04  0.0000E+00  0.0000E+00  0.0000E+00  0.0000E+00
   0.000f -1.3299E+04  0.0000E+00  1.7299E+02  1.8839E+01  1.5415E+02  0.0000E+00  0.0000E+00  0.0000E+00  0.0000E+00
   0.013s  2.6786E+04  0.0000E+00  0.0000E+00  0.0000E+00  9.0000E+01  1.1664E+02  9.0000E+01  0.0000E+00 -1.4761E-01

  rolling -1.3242E+04  0.0000E+00 -1.3242E+04 -5.9406E+00 -1.3236E+04  0.0000E+00  0.0000E+00  0.0000E+00  0.0000E+00
 averages -1.3299E+04  0.0000E+00  1.7299E+02  1.8839E+01  1.5415E+02  0.0000E+00  0.0000E+00  0.0000E+00  0.0000E+00
           2.6786E+04  0.0000E+00  0.0000E+00  0.0000E+00  9.0000E+01  1.1664E+02  9.0000E+01  0.0000E+00 -1.4761E-01
 ------------------------------------------------------------------------------------------------------------------------


 run terminating. elapsed cpu time =   1.30000E-02, job time = *******d, close time = 2000.00s



 run terminated after       1 steps. final averages calculated over       1 steps.


 ------------------------------------------------------------------------------------------------------------------------

     step     eng_tot    temp_tot     eng_cfg     eng_vdw     eng_cou     eng_bnd     eng_ang     eng_dih     eng_tet
 time          eng_pv    temp_rot     vir_cfg     vir_vdw     vir_cou     vir_bnd     vir_ang     vir_con     vir_tet
 cpu time      volume    temp_shl     eng_shl     vir_shl       alpha        beta       gamma     vir_pmf       press


 ------------------------------------------------------------------------------------------------------------------------
        1 -1.3242E+04  0.0000E+00 -1.3242E+04 -5.9406E+00 -1.3236E+04  0.0000E+00  0.0000E+00  0.0000E+00  0.0000E+00
   0.000f -1.3299E+04  0.0000E+00  1.7299E+02  1.8839E+01  1.5415E+02  0.0000E+00  0.0000E+00  0.0000E+00  0.0000E+00
   0.015s  2.6786E+04  0.0000E+00  0.0000E+00  0.0000E+00  9.0000E+01  1.1664E+02  9.0000E+01  0.0000E+00 -1.4761E-01

  r.m.s.   0.0000E+00  0.0000E+00  0.0000E+00  0.0000E+00  0.0000E+00  0.0000E+00  0.0000E+00  0.0000E+00  0.0000E+00
 fluctn.   0.0000E+00  0.0000E+00  0.0000E+00  0.0000E+00  0.0000E+00  0.0000E+00  0.0000E+00  0.0000E+00  0.0000E+00
           0.0000E+00  0.0000E+00  0.0000E+00  0.0000E+00  0.0000E+00  0.0000E+00  0.0000E+00  0.0000E+00  0.0000E+00
 ------------------------------------------------------------------------------------------------------------------------


            Approximate 3D Diffusion  coefficients (10^-9 m^2 / s)

            atom        D 
            CH4               NaN
            DUM               NaN
            Zn                NaN
            O                 NaN
            N                 NaN
            C                 NaN
            H                 NaN


                Average pressure tensor                                       r.m.s. fluctuations 

          -1.8479E-01 -3.7327E-03 -1.1550E-01                          0.0000E+00  0.0000E+00  0.0000E+00
          -3.7327E-03 -8.6752E-02 -2.1682E-03                          0.0000E+00  0.0000E+00  0.0000E+00
          -1.1550E-01 -2.1682E-03 -1.7129E-01                          0.0000E+00  0.0000E+00  0.0000E+00

            trace/3.  -1.4761E-01


 gaussian moments of momenta. over  0.000000E+00 samples
    0.000000E+00    0.000000E+00    0.000000E+00    0.000000E+00    0.000000E+00


 sample of final configuration

      i       x(i)        y(i)        z(i)       vx(i)       vy(i)       vz(i)       fx(i)       fy(i)       fz(i)


      1  5.1853E+00  4.0766E+00  3.5242E-01  0.0000E+00  0.0000E+00  0.0000E+00 -8.0845E+00  5.9466E+01  1.6153E+01
     81  1.4107E+01  3.0315E+00 -1.0583E+01  0.0000E+00  0.0000E+00  0.0000E+00  0.0000E+00  0.0000E+00  0.0000E+00
    161 -1.3879E+00  1.2295E+01  5.7648E+00  0.0000E+00  0.0000E+00  0.0000E+00  0.0000E+00  0.0000E+00  0.0000E+00
    241  5.7432E+00 -1.4511E+01 -5.7264E+00  0.0000E+00  0.0000E+00  0.0000E+00  0.0000E+00  0.0000E+00  0.0000E+00
    321  1.4480E+01 -5.9624E+00 -1.1512E+01  0.0000E+00  0.0000E+00  0.0000E+00  0.0000E+00  0.0000E+00  0.0000E+00
    401  1.3918E+01  5.4983E+00  4.7568E+00  0.0000E+00  0.0000E+00  0.0000E+00  0.0000E+00  0.0000E+00  0.0000E+00
    481  1.6975E+01  1.9168E+00 -1.1217E+01  0.0000E+00  0.0000E+00  0.0000E+00  0.0000E+00  0.0000E+00  0.0000E+00
    561  6.5559E+00  1.1949E+01  6.5971E+00  0.0000E+00  0.0000E+00  0.0000E+00  0.0000E+00  0.0000E+00  0.0000E+00
    641  1.1506E+01  1.3345E+01 -3.4249E+00  0.0000E+00  0.0000E+00  0.0000E+00  0.0000E+00  0.0000E+00  0.0000E+00
    721  7.1583E+00 -4.6504E+00  1.1982E+01  0.0000E+00  0.0000E+00  0.0000E+00  0.0000E+00  0.0000E+00  0.0000E+00
    801 -1.4254E+01  5.6146E+00  3.2671E+00  0.0000E+00  0.0000E+00  0.0000E+00  0.0000E+00  0.0000E+00  0.0000E+00
    881 -4.7361E+00  3.0908E+00 -1.0096E+01  0.0000E+00  0.0000E+00  0.0000E+00  0.0000E+00  0.0000E+00  0.0000E+00
    961 -1.2251E+01  1.2875E+01  6.3332E+00  0.0000E+00  0.0000E+00  0.0000E+00  0.0000E+00  0.0000E+00  0.0000E+00
   1041 -1.5019E+01  1.2295E+01 -2.6933E+00  0.0000E+00  0.0000E+00  0.0000E+00  0.0000E+00  0.0000E+00  0.0000E+00
   1121 -2.0614E+01 -4.6670E+00  1.1190E+01  0.0000E+00  0.0000E+00  0.0000E+00  0.0000E+00  0.0000E+00  0.0000E+00
   1201 -2.9405E+00  3.8811E+00  5.4045E+00  0.0000E+00  0.0000E+00  0.0000E+00  0.0000E+00  0.0000E+00  0.0000E+00
   1281  2.8687E-01  5.4983E+00 -3.7013E+00  0.0000E+00  0.0000E+00  0.0000E+00  0.0000E+00  0.0000E+00  0.0000E+00
   1361 -9.3824E+00  1.1760E+01  5.6991E+00  0.0000E+00  0.0000E+00  0.0000E+00  0.0000E+00  0.0000E+00  0.0000E+00
   1441 -7.0754E+00  1.1949E+01 -1.8610E+00  0.0000E+00  0.0000E+00  0.0000E+00  0.0000E+00  0.0000E+00  0.0000E+00
   1521 -2.1249E+00 -6.3424E+00 -1.1883E+01  0.0000E+00  0.0000E+00  0.0000E+00  0.0000E+00  0.0000E+00  0.0000E+00

 time elapsed since job start =           0.015 seconds

